TITLE="1RL_E_WD210.dat"
VARIABLES= "Density" "Radius" "Height" "0.1053" "0.356" "0.6617" "0.7889" "1.1732" "1.3325" "1.408" "2" "3" 
ZONE T="3D Data" I=11 J=15 K=11 F=POINT
0.00000000e+000 3.50000000e+001 0.00000000e+000 2.66307902e-004 1.78791908e-004 1.14061558e-004 1.00898245e-004 7.75131714e-005 7.12314675e-005 6.86578996e-005 5.27970913e-005 3.74995602e-005 
0.00000000e+000 3.48214286e+001 0.00000000e+000 2.66047836e-004 1.78616658e-004 1.13944851e-004 1.00790983e-004 7.74213968e-005 7.11441039e-005 6.85724483e-005 5.27262390e-005 3.74478039e-005 
0.00000000e+000 3.42857143e+001 0.00000000e+000 2.65402210e-004 1.78208926e-004 1.13651048e-004 1.00516599e-004 7.71803385e-005 7.09133168e-005 6.83462555e-005 5.25372409e-005 3.73101348e-005 
0.00000000e+000 3.33928571e+001 0.00000000e+000 2.64101661e-004 1.77326621e-004 1.13036815e-004 9.99501706e-005 7.66968917e-005 7.04543461e-005 6.78979384e-005 5.21687812e-005 3.70431873e-005 
0.00000000e+000 3.21428571e+001 0.00000000e+000 2.62784999e-004 1.76508200e-004 1.12438320e-004 9.93846562e-005 7.61883898e-005 6.99649405e-005 6.74173538e-005 5.17641016e-005 3.67480600e-005 
0.00000000e+000 3.05357143e+001 0.00000000e+000 2.60083908e-004 1.74810171e-004 1.11253650e-004 9.82923811e-005 7.52622015e-005 6.90885100e-005 6.65625075e-005 5.10670065e-005 3.62435737e-005 
0.00000000e+000 2.85714286e+001 0.00000000e+000 2.55639371e-004 1.71926424e-004 1.09306114e-004 9.65254354e-005 7.38196947e-005 6.77384882e-005 6.52515583e-005 5.00205700e-005 3.54904292e-005 
0.00000000e+000 2.62500000e+001 0.00000000e+000 2.47652878e-004 1.66687202e-004 1.05888889e-004 9.34723590e-005 7.14182536e-005 6.55160340e-005 6.31032144e-005 4.83437324e-005 3.42910202e-005 
0.00000000e+000 2.35714286e+001 0.00000000e+000 2.33559805e-004 1.57316211e-004 9.99387833e-005 8.82196984e-005 6.74068027e-005 6.18372101e-005 5.95603462e-005 4.56309505e-005 3.23646061e-005 
0.00000000e+000 2.05357143e+001 0.00000000e+000 2.10576271e-004 1.42105898e-004 9.04230043e-005 7.98719451e-005 6.11322858e-005 5.61124120e-005 5.40589574e-005 4.14669903e-005 2.94238880e-005 
0.00000000e+000 1.71428571e+001 0.00000000e+000 1.79772140e-004 1.21683680e-004 7.77086704e-005 6.87447474e-005 5.28240555e-005 4.85497264e-005 4.67987016e-005 3.60029583e-005 2.55762025e-005 
0.00000000e+000 1.33928571e+001 0.00000000e+000 1.42993947e-004 9.72384976e-005 6.24685728e-005 5.54054806e-005 4.28694631e-005 3.94921967e-005 3.81051852e-005 2.94688456e-005 2.09749142e-005 
0.00000000e+000 9.28571429e+000 0.00000000e+000 1.08187846e-004 7.40879461e-005 4.79201219e-005 4.26391839e-005 3.33004127e-005 3.07783412e-005 2.97393284e-005 2.31767370e-005 1.65448955e-005 
0.00000000e+000 4.82142857e+000 0.00000000e+000 8.26924572e-005 5.75266832e-005 3.72707877e-005 3.32135601e-005 2.61312406e-005 2.42324286e-005 2.34494525e-005 1.84369343e-005 1.32189696e-005 
0.00000000e+000 0.00000000e+000 0.00000000e+000 7.78963744e-005 5.43664031e-005 3.45684440e-005 3.06205965e-005 2.38903302e-005 2.21337068e-005 2.14145590e-005 1.68497163e-005 1.21032790e-005 
2.50000000e-001 3.50000000e+001 0.00000000e+000 1.99176427e-004 1.43602367e-004 9.50913039e-005 8.49775212e-005 6.67273899e-005 6.17290910e-005 5.96667693e-005 4.66710475e-005 3.37376545e-005 
2.50000000e-001 3.48214286e+001 0.00000000e+000 1.94681157e-004 1.41733766e-004 9.41474698e-005 8.41923975e-005 6.61978324e-005 6.12613616e-005 5.92235112e-005 4.63648115e-005 3.35466687e-005 
2.50000000e-001 3.42857143e+001 0.00000000e+000 1.84510575e-004 1.37426363e-004 9.19375771e-005 8.23458792e-005 6.49395488e-005 6.01463439e-005 5.81653611e-005 4.56276584e-005 3.30837359e-005 
2.50000000e-001 3.33928571e+001 0.00000000e+000 1.70707454e-004 1.31310641e-004 8.87457718e-005 7.96648325e-005 6.30894795e-005 5.85000290e-005 5.66001351e-005 4.45240620e-005 3.23803954e-005 
2.50000000e-001 3.21428571e+001 0.00000000e+000 1.55037415e-004 1.24286010e-004 8.50656211e-005 7.65689455e-005 6.09447951e-005 5.65891258e-005 5.47823971e-005 4.32390159e-005 3.15614604e-005 
2.50000000e-001 3.05357143e+001 0.00000000e+000 1.37801340e-004 1.16064280e-004 8.06261114e-005 7.28039744e-005 5.82920686e-005 5.42133366e-005 5.25174049e-005 4.16141093e-005 3.05042990e-005 
2.50000000e-001 2.85714286e+001 0.00000000e+000 1.20004153e-004 1.06922547e-004 7.55264135e-005 6.84448314e-005 5.51715597e-005 5.14054256e-005 4.98350454e-005 3.96640869e-005 2.92114468e-005 
2.50000000e-001 2.62500000e+001 0.00000000e+000 1.02171642e-004 9.67799439e-005 6.96112321e-005 6.33340135e-005 5.14344331e-005 4.80217021e-005 4.65940142e-005 3.72662123e-005 2.75808120e-005 
2.50000000e-001 2.35714286e+001 0.00000000e+000 8.44242746e-005 8.51869861e-005 6.24717696e-005 5.70891836e-005 4.67612799e-005 4.37629690e-005 4.25036948e-005 3.41859559e-005 2.54328129e-005 
2.50000000e-001 2.05357143e+001 0.00000000e+000 6.69230811e-005 7.19778662e-005 5.38664745e-005 4.94662218e-005 4.09192565e-005 3.84038912e-005 3.73423983e-005 3.02324524e-005 2.26147395e-005 
2.50000000e-001 1.71428571e+001 0.00000000e+000 5.06087159e-005 5.79132728e-005 4.42662400e-005 4.08728214e-005 3.42042740e-005 3.22115961e-005 3.13657209e-005 2.55948387e-005 1.92575455e-005 
2.50000000e-001 1.33928571e+001 0.00000000e+000 3.62119146e-005 4.38576273e-005 3.42382697e-005 3.18035247e-005 2.69759793e-005 2.55098670e-005 2.48829945e-005 2.04990715e-005 1.55157980e-005 
2.50000000e-001 9.28571429e+000 0.00000000e+000 2.51785657e-005 3.20479506e-005 2.54921802e-005 2.38190907e-005 2.04969356e-005 1.94744534e-005 1.90337880e-005 1.58540605e-005 1.20730503e-005 
2.50000000e-001 4.82142857e+000 0.00000000e+000 1.81947176e-005 2.42303422e-005 1.94589244e-005 1.82405483e-005 1.58640890e-005 1.51362630e-005 1.48213220e-005 1.24807741e-005 9.56476362e-006 
2.50000000e-001 0.00000000e+000 0.00000000e+000 1.67667863e-005 2.26699920e-005 1.79241897e-005 1.67123711e-005 1.44317534e-005 1.37613785e-005 1.34743633e-005 1.13637626e-005 8.73108992e-006 
5.00000000e-001 3.50000000e+001 0.00000000e+000 1.86774781e-004 1.31775900e-004 8.69858927e-005 7.77567924e-005 6.12034700e-005 5.66876373e-005 5.48256912e-005 4.30736707e-005 3.13299115e-005 
5.00000000e-001 3.48214286e+001 0.00000000e+000 1.78736942e-004 1.28405041e-004 8.52883982e-005 7.63495846e-005 6.02661118e-005 5.58640358e-005 5.40470535e-005 4.25444225e-005 3.10056240e-005 
5.00000000e-001 3.42857143e+001 0.00000000e+000 1.61459890e-004 1.20884954e-004 8.14300111e-005 7.31354132e-005 5.81024787e-005 5.39567760e-005 5.22414179e-005 4.13066535e-005 3.02408285e-005 
5.00000000e-001 3.33928571e+001 0.00000000e+000 1.39422986e-004 1.10719709e-004 7.61125437e-005 6.86831421e-005 5.50713248e-005 5.12750680e-005 4.96985804e-005 3.95454965e-005 2.91388685e-005 
5.00000000e-001 3.21428571e+001 0.00000000e+000 1.15916087e-004 9.93259502e-005 7.00593412e-005 6.35963798e-005 5.15829750e-005 4.81824878e-005 4.67636448e-005 3.75030377e-005 2.78564058e-005 
5.00000000e-001 3.05357143e+001 0.00000000e+000 9.25643548e-005 8.69917743e-005 6.32899867e-005 5.78611501e-005 4.75821362e-005 4.46169516e-005 4.33722238e-005 3.51081301e-005 2.63236653e-005 
5.00000000e-001 2.85714286e+001 0.00000000e+000 7.11481091e-005 7.44745682e-005 5.61530509e-005 5.17578108e-005 4.32417231e-005 4.07262361e-005 3.96622836e-005 3.24462215e-005 2.45851230e-005 
5.00000000e-001 2.62500000e+001 0.00000000e+000 5.26659788e-005 6.22345743e-005 4.88217569e-005 4.54100579e-005 3.86092563e-005 3.65409029e-005 3.56578945e-005 2.95095966e-005 2.26118713e-005 
5.00000000e-001 2.35714286e+001 0.00000000e+000 3.74371239e-005 5.03938964e-005 4.12540113e-005 3.87501691e-005 3.35834587e-005 3.19544453e-005 3.12509181e-005 2.61888384e-005 2.03030299e-005 
5.00000000e-001 2.05357143e+001 0.00000000e+000 2.54161260e-005 3.92062935e-005 3.35396781e-005 3.18310157e-005 2.81552436e-005 2.69437163e-005 2.64129097e-005 2.24324517e-005 1.75973035e-005 
5.00000000e-001 1.71428571e+001 0.00000000e+000 1.64661974e-005 2.91424133e-005 2.60675912e-005 2.50071534e-005 2.26051611e-005 2.17671718e-005 2.13931166e-005 1.84322052e-005 1.46314047e-005 
5.00000000e-001 1.33928571e+001 0.00000000e+000 1.01954297e-005 2.05605752e-005 1.91942082e-005 1.86128274e-005 1.72091664e-005 1.66813900e-005 1.64398459e-005 1.43824594e-005 1.15462084e-005 
5.00000000e-001 9.28571429e+000 0.00000000e+000 6.23700393e-006 1.41663949e-005 1.37305479e-005 1.34475697e-005 1.27101781e-005 1.24039938e-005 1.22590569e-005 1.08949875e-005 8.83797005e-006 
5.00000000e-001 4.82142857e+000 0.00000000e+000 4.08735626e-006 1.02763307e-005 1.01988563e-005 1.00505348e-005 9.65295174e-006 9.47372597e-006 9.38594738e-006 8.46059204e-006 6.92737472e-006 
5.00000000e-001 0.00000000e+000 0.00000000e+000 3.60896288e-006 9.45305391e-006 9.29392647e-006 9.12142087e-006 8.71798359e-006 8.55597931e-006 8.47827252e-006 7.66393322e-006 6.29845277e-006 
7.50000000e-001 3.50000000e+001 0.00000000e+000 1.82581447e-004 1.26871842e-004 8.30984047e-005 7.41469940e-005 5.81810864e-005 5.38521182e-005 5.20708544e-005 4.08765984e-005 2.97477043e-005 
7.50000000e-001 3.48214286e+001 0.00000000e+000 1.71376116e-004 1.22137449e-004 8.07080372e-005 7.21654657e-005 5.68634743e-005 5.26956098e-005 5.09780422e-005 4.01366159e-005 2.92962724e-005 
7.50000000e-001 3.42857143e+001 0.00000000e+000 1.48251048e-004 1.11869346e-004 7.54065489e-005 6.77457147e-005 5.38891146e-005 5.00753633e-005 4.84982601e-005 3.84413551e-005 2.82517224e-005 
7.50000000e-001 3.33928571e+001 0.00000000e+000 1.20282571e-004 9.84896999e-005 6.83255105e-005 6.18062623e-005 4.98404813e-005 4.64947059e-005 4.51038347e-005 3.60958974e-005 2.67882534e-005 
7.50000000e-001 3.21428571e+001 0.00000000e+000 9.22938815e-005 8.39931720e-005 6.04528177e-005 5.51634203e-005 4.52594475e-005 4.24299099e-005 4.12452310e-005 3.34088525e-005 2.50997587e-005 
7.50000000e-001 3.05357143e+001 0.00000000e+000 6.68322969e-005 6.91810331e-005 5.20735374e-005 4.80233142e-005 4.02360885e-005 3.79460573e-005 3.69780422e-005 3.03896291e-005 2.31655058e-005 
7.50000000e-001 2.85714286e+001 0.00000000e+000 4.57895645e-005 5.51409520e-005 4.37366962e-005 4.08364996e-005 3.50593796e-005 3.32930092e-005 3.25367278e-005 2.71888866e-005 2.10697990e-005 
7.50000000e-001 2.62500000e+001 0.00000000e+000 2.97341989e-005 4.25371396e-005 3.57965048e-005 3.38914284e-005 2.99047401e-005 2.86179771e-005 2.80573014e-005 2.38817837e-005 1.88396596e-005 
7.50000000e-001 2.35714286e+001 0.00000000e+000 1.82951221e-005 3.16051495e-005 2.83737311e-005 2.72758090e-005 2.47992132e-005 2.39328212e-005 2.35456763e-005 2.04448296e-005 1.64329248e-005 
7.50000000e-001 2.05357143e+001 0.00000000e+000 1.06453627e-005 2.25134494e-005 2.16315270e-005 2.11305441e-005 1.98301457e-005 1.93087406e-005 1.90663921e-005 1.69050614e-005 1.38469271e-005 
7.50000000e-001 1.71428571e+001 0.00000000e+000 5.87330039e-006 1.53282909e-005 1.57907603e-005 1.56833028e-005 1.52136378e-005 1.49531784e-005 1.48227201e-005 1.34321392e-005 1.12105891e-005 
7.50000000e-001 1.33928571e+001 0.00000000e+000 3.10086772e-006 9.96477626e-006 1.09819237e-005 1.10871571e-005 1.11192362e-005 1.10339893e-005 1.09810815e-005 1.01733529e-005 8.64146786e-006 
7.50000000e-001 9.28571429e+000 0.00000000e+000 1.62749459e-006 6.38862234e-006 7.48314920e-006 7.66926343e-006 7.93819435e-006 7.95129933e-006 7.94398322e-006 7.52070527e-006 6.48996015e-006 
7.50000000e-001 4.82142857e+000 0.00000000e+000 9.36312555e-007 4.38765002e-006 5.36587139e-006 5.55583794e-006 5.88687173e-006 5.94148285e-006 5.95522780e-006 5.74330465e-006 5.02202049e-006 
7.50000000e-001 0.00000000e+000 0.00000000e+000 7.76810347e-007 3.94178472e-006 4.81902226e-006 4.97836712e-006 5.26638972e-006 5.31958205e-006 5.33465686e-006 5.16869935e-006 4.54359166e-006 
1.00000000e+000 3.50000000e+001 0.00000000e+000 1.80509771e-004 1.24388916e-004 8.09964705e-005 7.21478529e-005 5.64060704e-005 5.21540464e-005 5.04070668e-005 3.94766572e-005 2.86780123e-005 
1.00000000e+000 3.48214286e+001 0.00000000e+000 1.66371725e-004 1.18385318e-004 7.79582619e-005 6.96283548e-005 5.47304886e-005 5.06835666e-005 4.90177070e-005 3.85366631e-005 2.81050948e-005 
1.00000000e+000 3.42857143e+001 0.00000000e+000 1.38198834e-004 1.05682445e-004 7.13629420e-005 6.41236604e-005 5.10197637e-005 4.74136858e-005 4.59228271e-005 3.64201908e-005 2.68002467e-005 
1.00000000e+000 3.33928571e+001 0.00000000e+000 1.05751660e-004 8.96627640e-005 6.27879856e-005 5.69137579e-005 4.60854759e-005 4.30458972e-005 4.17808401e-005 3.35536074e-005 2.50087384e-005 
1.00000000e+000 3.21428571e+001 0.00000000e+000 7.52405249e-005 7.29141893e-005 5.35017610e-005 4.90418774e-005 4.06113319e-005 3.81783057e-005 3.71562369e-005 3.03179809e-005 2.29653385e-005 
1.00000000e+000 3.05357143e+001 0.00000000e+000 4.96849640e-005 5.66732510e-005 4.40295664e-005 4.09153003e-005 3.48222095e-005 3.29942815e-005 3.22163470e-005 2.67981929e-005 2.06955180e-005 
1.00000000e+000 2.85714286e+001 0.00000000e+000 3.05437419e-005 4.22032849e-005 3.50657121e-005 3.31139573e-005 2.91026033e-005 2.78293833e-005 2.72772787e-005 2.32025171e-005 1.83201298e-005 
1.00000000e+000 2.62500000e+001 0.00000000e+000 1.75248831e-005 3.01430702e-005 2.70388710e-005 2.60059428e-005 2.37045025e-005 2.29039337e-005 2.25464616e-005 1.96640431e-005 1.59083635e-005 
1.00000000e+000 2.35714286e+001 0.00000000e+000 9.39823230e-006 2.05846221e-005 2.00960068e-005 1.97233451e-005 1.87155668e-005 1.82909010e-005 1.80906710e-005 1.62131449e-005 1.34596359e-005 
1.00000000e+000 2.05357143e+001 0.00000000e+000 4.71040053e-006 1.34175580e-005 1.43366802e-005 1.43772030e-005 1.42391556e-005 1.40856324e-005 1.40013602e-005 1.29124332e-005 1.10052236e-005 
1.00000000e+000 1.71428571e+001 0.00000000e+000 2.21786035e-006 8.34085295e-006 9.79216454e-006 1.00432781e-005 1.04029065e-005 1.04222157e-005 1.04142982e-005 9.89387924e-006 8.65666444e-006 
1.00000000e+000 1.33928571e+001 0.00000000e+000 9.94839388e-007 4.96505695e-006 6.39730932e-006 6.70942897e-006 7.26870023e-006 7.37598488e-006 7.40943078e-006 7.25118676e-006 6.50276488e-006 
1.00000000e+000 9.28571429e+000 0.00000000e+000 4.42502889e-007 2.93351715e-006 4.12347359e-006 4.41570398e-006 4.99183118e-006 5.12837835e-006 5.17801470e-006 5.21403405e-006 4.78026634e-006 
1.00000000e+000 4.82142857e+000 0.00000000e+000 2.18355541e-007 1.88557150e-006 2.83367790e-006 3.08101068e-006 3.59811451e-006 3.73361725e-006 3.78562601e-006 3.90408359e-006 3.64418694e-006 
1.00000000e+000 0.00000000e+000 0.00000000e+000 1.67204356e-007 1.64366637e-006 2.49872598e-006 2.71713580e-006 3.18133894e-006 3.30738916e-006 3.35664651e-006 3.48586715e-006 3.27766610e-006 
1.25000000e+000 3.50000000e+001 0.00000000e+000 1.79264462e-004 1.22918359e-004 7.97280948e-005 7.09283371e-005 5.52876532e-005 5.10709506e-005 4.93399822e-005 3.85447567e-005 2.79329952e-005 
1.25000000e+000 3.48214286e+001 0.00000000e+000 1.62364969e-004 1.15713964e-004 7.60758180e-005 6.78985356e-005 5.32717352e-005 4.93016878e-005 4.76682983e-005 3.74137434e-005 2.72435496e-005 
1.25000000e+000 3.42857143e+001 0.00000000e+000 1.29738284e-004 1.00805372e-004 6.82985096e-005 6.14003737e-005 4.88829117e-005 4.54323963e-005 4.40053752e-005 3.49059606e-005 2.56950671e-005 
1.25000000e+000 3.33928571e+001 0.00000000e+000 9.38578108e-005 8.25673893e-005 5.84343284e-005 5.30867518e-005 4.31679612e-005 4.03676123e-005 3.92001261e-005 3.15712272e-005 2.36046948e-005 
1.25000000e+000 3.21428571e+001 0.00000000e+000 6.21009988e-005 6.41696308e-005 4.80367111e-005 4.42332093e-005 3.69576823e-005 3.48322222e-005 3.39358659e-005 2.78667440e-005 2.12505518e-005 
1.25000000e+000 3.05357143e+001 0.00000000e+000 3.75281422e-005 4.71929558e-005 3.78422486e-005 3.54270701e-005 3.06009690e-005 2.91190991e-005 2.84836107e-005 2.39482774e-005 1.87019121e-005 
1.25000000e+000 2.85714286e+001 0.00000000e+000 2.07859231e-005 3.29325239e-005 2.86350919e-005 2.73358454e-005 2.45559380e-005 2.36318013e-005 2.32249930e-005 2.00731351e-005 1.61122726e-005 
1.25000000e+000 2.62500000e+001 0.00000000e+000 1.05872116e-005 2.18437141e-005 2.08381493e-005 2.03421959e-005 1.91108855e-005 1.86293803e-005 1.84067654e-005 1.64122537e-005 1.35816991e-005 
1.25000000e+000 2.35714286e+001 0.00000000e+000 4.97262085e-006 1.37456220e-005 1.45367100e-005 1.45478115e-005 1.43644476e-005 1.42029527e-005 1.41162789e-005 1.30242562e-005 1.11368016e-005 
1.25000000e+000 2.05357143e+001 0.00000000e+000 2.15570885e-006 8.20895400e-006 9.70208366e-006 9.97254438e-006 1.03871990e-005 1.04277870e-005 1.04296470e-005 9.97752693e-006 8.82440935e-006 
1.25000000e+000 1.71428571e+001 0.00000000e+000 8.68886285e-007 4.65689318e-006 6.18946883e-006 6.54400370e-006 7.21133076e-006 7.35637058e-006 7.40656246e-006 7.35791138e-006 6.73241126e-006 
1.25000000e+000 1.33928571e+001 0.00000000e+000 3.31124167e-007 2.53035407e-006 3.78524305e-006 4.11705835e-006 4.80199652e-006 4.97838088e-006 5.04591578e-006 5.20519391e-006 4.91860750e-006 
1.25000000e+000 9.28571429e+000 0.00000000e+000 1.24158554e-007 1.36864940e-006 2.29537801e-006 2.56506241e-006 3.15943161e-006 3.32703665e-006 3.39400474e-006 3.62996397e-006 3.53138460e-006 
1.25000000e+000 4.82142857e+000 0.00000000e+000 5.17431368e-008 8.15364042e-007 1.50189570e-006 1.71391206e-006 2.20401756e-006 2.35078240e-006 2.41092674e-006 2.65745362e-006 2.64686412e-006 
1.25000000e+000 0.00000000e+000 0.00000000e+000 3.59898613e-008 6.85384748e-007 1.29562206e-006 1.48298162e-006 1.92179425e-006 2.05633130e-006 2.11205258e-006 2.35093375e-006 2.36444995e-006 
1.50000000e+000 3.50000000e+001 0.00000000e+000 1.78428899e-004 1.21946052e-004 7.88901135e-005 7.01200346e-005 5.45356780e-005 5.03379043e-005 4.86155070e-005 3.78971284e-005 2.73982395e-005 
1.50000000e+000 3.48214286e+001 0.00000000e+000 1.58903876e-004 1.13594044e-004 7.46501577e-005 6.66016709e-005 5.21935587e-005 4.82821329e-005 4.66730368e-005 3.65825845e-005 2.65965351e-005 
1.50000000e+000 3.42857143e+001 0.00000000e+000 1.22299945e-004 9.66600541e-005 6.57788261e-005 5.91822421e-005 4.71733067e-005 4.38539209e-005 4.24801211e-005 3.37082072e-005 2.48185958e-005 
1.50000000e+000 3.33928571e+001 0.00000000e+000 8.37893022e-005 7.65333379e-005 5.47870391e-005 4.98973046e-005 4.07626074e-005 3.81655740e-005 3.70805174e-005 2.99496527e-005 2.24545136e-005 
1.50000000e+000 3.21428571e+001 0.00000000e+000 5.16618793e-005 5.69365133e-005 4.35103701e-005 4.02541898e-005 3.39411919e-005 3.20708482e-005 3.12785157e-005 2.58423574e-005 1.98274013e-005 
1.50000000e+000 3.05357143e+001 0.00000000e+000 2.86400438e-005 3.96976839e-005 3.28644134e-005 3.09967127e-005 2.71702387e-005 2.59627058e-005 2.54402541e-005 2.16083482e-005 1.70480733e-005 
1.50000000e+000 2.85714286e+001 0.00000000e+000 1.43329533e-005 2.60181142e-005 2.36704693e-005 2.28395153e-005 2.09595224e-005 2.02947641e-005 1.99964708e-005 1.75449813e-005 1.42984397e-005 
1.50000000e+000 2.62500000e+001 0.00000000e+000 6.50155961e-006 1.60659607e-005 1.62849496e-005 1.61294209e-005 1.56013122e-005 1.53369600e-005 1.52071664e-005 1.38444360e-005 1.16999553e-005 
1.50000000e+000 2.35714286e+001 0.00000000e+000 2.68331327e-006 9.33810326e-006 1.06783146e-005 1.08895576e-005 1.11697414e-005 1.11670384e-005 1.11503966e-005 1.05734574e-005 9.29451675e-006 
1.50000000e+000 2.05357143e+001 0.00000000e+000 1.00920095e-006 5.11801666e-006 6.67148460e-006 7.02214364e-006 7.67504890e-006 7.81382833e-006 7.86122240e-006 7.78606677e-006 7.13098956e-006 
1.50000000e+000 1.71428571e+001 0.00000000e+000 3.49086987e-007 2.65134009e-006 3.97329427e-006 4.32529921e-006 5.05760583e-006 5.24916031e-006 5.32328522e-006 5.51877665e-006 5.27000742e-006 
1.50000000e+000 1.33928571e+001 0.00000000e+000 1.13104793e-007 1.31323039e-006 2.26987196e-006 2.55705991e-006 3.20252096e-006 3.38946340e-006 3.46523556e-006 3.76106793e-006 3.73840251e-006 
1.50000000e+000 9.28571429e+000 0.00000000e+000 3.56755951e-008 6.47467515e-007 1.28964482e-006 1.50226407e-006 2.01186830e-006 2.17035200e-006 2.23643496e-006 2.53727269e-006 2.61625143e-006 
1.50000000e+000 4.82142857e+000 0.00000000e+000 1.24346745e-008 3.54667393e-007 7.98838661e-007 9.56310628e-007 1.35296283e-006 1.48295313e-006 1.53823717e-006 1.81131398e-006 1.92427629e-006 
1.50000000e+000 0.00000000e+000 0.00000000e+000 7.74662903e-009 2.85795379e-007 6.71796959e-007 8.09394395e-007 1.16092413e-006 1.27850041e-006 1.32893532e-006 1.58551352e-006 1.70567209e-006 
1.75000000e+000 3.50000000e+001 0.00000000e+000 1.77827774e-004 1.21253078e-004 7.82963560e-005 6.95474209e-005 5.40007892e-005 4.98149829e-005 4.80979306e-005 3.74284551e-005 2.70028978e-005 
1.75000000e+000 3.48214286e+001 0.00000000e+000 1.55790504e-004 1.11797020e-004 7.34902175e-005 6.55582197e-005 5.13440767e-005 4.74828240e-005 4.58942065e-005 3.59366661e-005 2.60926032e-005 
1.75000000e+000 3.42857143e+001 0.00000000e+000 1.15608205e-004 9.29871157e-005 6.35971846e-005 5.72768466e-005 4.57308733e-005 4.25291626e-005 4.12027966e-005 3.27164014e-005 2.40973179e-005 
1.75000000e+000 3.33928571e+001 0.00000000e+000 7.51062959e-005 7.12407874e-005 5.16102401e-005 4.71293161e-005 3.86947207e-005 3.62782775e-005 3.52662092e-005 2.85714678e-005 2.14812269e-005 
1.75000000e+000 3.21428571e+001 0.00000000e+000 4.32199895e-005 5.07935886e-005 3.96388824e-005 3.68500478e-005 3.13636582e-005 2.97128095e-005 2.90099370e-005 2.41164841e-005 1.86134588e-005 
1.75000000e+000 3.05357143e+001 0.00000000e+000 2.20205204e-005 3.36233535e-005 2.87433381e-005 2.73140346e-005 2.42984537e-005 2.33156510e-005 2.28860173e-005 1.96348696e-005 1.56440890e-005 
1.75000000e+000 2.85714286e+001 0.00000000e+000 9.97819025e-006 2.07327543e-005 1.97338334e-005 1.92452948e-005 1.80392682e-005 1.75729253e-005 1.73581614e-005 1.54549750e-005 1.27790576e-005 
1.75000000e+000 2.62500000e+001 0.00000000e+000 4.04029090e-006 1.19412244e-005 1.28552342e-005 1.29161562e-005 1.28562222e-005 1.27426949e-005 1.26782067e-005 1.17762774e-005 1.01531012e-005 
1.75000000e+000 2.35714286e+001 0.00000000e+000 1.46872590e-006 6.42335244e-006 7.93459681e-006 8.24243499e-006 8.77442988e-006 8.86682811e-006 8.89331158e-006 8.65807655e-006 7.81365881e-006 
1.75000000e+000 2.05357143e+001 0.00000000e+000 4.80287955e-007 3.23599078e-006 4.64470544e-006 5.00342122e-006 5.73043932e-006 5.91359445e-006 5.98322261e-006 6.12697999e-006 5.80188762e-006 
1.75000000e+000 1.71428571e+001 0.00000000e+000 1.42834328e-007 1.53237168e-006 2.58282379e-006 2.89261830e-006 3.58244694e-006 3.78065259e-006 3.86086179e-006 4.17059762e-006 4.14959877e-006 
1.75000000e+000 1.33928571e+001 0.00000000e+000 3.93710783e-008 6.91607139e-007 1.37675097e-006 1.60483473e-006 2.15382856e-006 2.32571807e-006 2.39771279e-006 2.73399133e-006 2.85426323e-006 
1.75000000e+000 9.28571429e+000 0.00000000e+000 1.04376740e-008 3.09973615e-007 7.30673320e-007 8.86419016e-007 1.28841387e-006 1.42315018e-006 1.48101282e-006 1.78027379e-006 1.94361930e-006 
1.75000000e+000 4.82142857e+000 0.00000000e+000 3.02469725e-009 1.55132832e-007 4.26337665e-007 5.35159967e-007 8.32273667e-007 9.37254489e-007 9.83195333e-007 1.23621609e-006 1.40024312e-006 
1.75000000e+000 0.00000000e+000 0.00000000e+000 1.66742130e-009 1.19172478e-007 3.48335498e-007 4.41758197e-007 7.01295067e-007 7.94892974e-007 8.36186135e-007 1.06929986e-006 1.23044147e-006 
2.00000000e+000 3.50000000e+001 0.00000000e+000 1.77373919e-004 1.20732629e-004 7.78529543e-005 6.91203564e-005 5.36021195e-005 4.94249413e-005 4.77116833e-005 3.70766400e-005 2.67023016e-005 
2.00000000e+000 3.48214286e+001 0.00000000e+000 1.52921863e-004 1.10209522e-004 7.24987535e-005 6.46752411e-005 5.06405940e-005 4.68249340e-005 4.52547545e-005 3.54129558e-005 2.56865866e-005 
2.00000000e+000 3.42857143e+001 0.00000000e+000 1.09504006e-004 8.96519387e-005 6.16455727e-005 5.55823133e-005 4.44670562e-005 4.13742076e-005 4.00915710e-005 3.18644571e-005 2.34843985e-005 
2.00000000e+000 3.33928571e+001 0.00000000e+000 6.75297086e-005 6.65122580e-005 4.87752482e-005 4.46640137e-005 3.68650108e-005 3.46125817e-005 3.36667403e-005 2.73652091e-005 2.06351443e-005 
2.00000000e+000 3.21428571e+001 0.00000000e+000 3.63132222e-005 4.54912926e-005 3.62591733e-005 3.38740799e-005 2.91083357e-005 2.76500375e-005 2.70257364e-005 2.26090779e-005 1.75545101e-005 
2.00000000e+000 3.05357143e+001 0.00000000e+000 1.70283782e-005 2.86225594e-005 2.52670126e-005 2.41924330e-005 2.18439635e-005 2.10486193e-005 2.06967014e-005 1.79357181e-005 1.44294629e-005 
2.00000000e+000 2.85714286e+001 0.00000000e+000 6.99791257e-006 1.66267024e-005 1.65550704e-005 1.63181880e-005 1.56223450e-005 1.53101957e-005 1.51608479e-005 1.36955706e-005 1.14855534e-005 
2.00000000e+000 2.62500000e+001 0.00000000e+000 2.53382720e-006 8.94559793e-006 1.02246185e-005 1.04203190e-005 1.06704929e-005 1.06623981e-005 1.06442861e-005 1.00836188e-005 8.86379406e-006 
2.00000000e+000 2.35714286e+001 0.00000000e+000 8.12720732e-007 4.46024894e-006 5.94800097e-006 6.29267548e-006 6.94844326e-006 7.09578395e-006 7.14820502e-006 7.13990312e-006 6.60927806e-006 
2.00000000e+000 2.05357143e+001 0.00000000e+000 2.31457890e-007 2.06818481e-006 3.26534234e-006 3.59871915e-006 4.31507440e-006 4.51226442e-006 4.59064787e-006 4.85574856e-006 4.74862593e-006 
2.00000000e+000 1.71428571e+001 0.00000000e+000 5.92576111e-008 8.96154259e-007 1.69619472e-006 1.95332204e-006 2.55897778e-006 2.74479945e-006 2.82211785e-006 3.17269174e-006 3.28476912e-006 
2.00000000e+000 1.33928571e+001 0.00000000e+000 1.39018274e-008 3.68567166e-007 8.43152524e-007 1.01629434e-006 1.45934044e-006 1.60693843e-006 1.67027550e-006 1.99832968e-006 2.18842232e-006 
2.00000000e+000 9.28571429e+000 0.00000000e+000 3.09638009e-009 1.49919178e-007 4.17098631e-007 5.26593716e-007 8.29465193e-007 9.37711666e-007 9.85328642e-007 1.25365077e-006 1.44775021e-006 
2.00000000e+000 4.82142857e+000 0.00000000e+000 7.43414533e-010 6.82092232e-008 2.28278203e-007 3.00329422e-007 5.13017958e-007 5.93449502e-007 6.29529664e-007 8.44807748e-007 1.01984622e-006 
2.00000000e+000 0.00000000e+000 0.00000000e+000 3.58903696e-010 4.96931740e-008 1.80616505e-007 2.41106568e-007 4.23640753e-007 4.94215595e-007 5.26140921e-007 7.21155750e-007 8.87618559e-007 
2.25000000e+000 3.50000000e+001 0.00000000e+000 1.77018916e-004 1.20326560e-004 7.75084982e-005 6.87890434e-005 5.32935433e-005 4.91231238e-005 4.74128061e-005 3.68039404e-005 2.64677351e-005 
2.25000000e+000 3.48214286e+001 0.00000000e+000 1.50237803e-004 1.08768649e-004 7.16219175e-005 6.39009072e-005 5.00356349e-005 4.62626285e-005 4.47096114e-005 3.49729871e-005 2.53493643e-005 
2.25000000e+000 3.42857143e+001 0.00000000e+000 1.03884373e-004 8.65759756e-005 5.98623331e-005 5.40403336e-005 4.33300767e-005 4.03394591e-005 3.90978284e-005 3.11115740e-005 2.29493857e-005 
2.25000000e+000 3.33928571e+001 0.00000000e+000 6.08646522e-005 6.22369270e-005 4.62050379e-005 4.24305211e-005 3.52136279e-005 3.31119055e-005 3.22269401e-005 2.62858773e-005 1.98834865e-005 
2.25000000e+000 3.21428571e+001 0.00000000e+000 3.06151472e-005 4.08648986e-005 3.32684869e-005 3.12344675e-005 2.71021207e-005 2.58145405e-005 2.52600580e-005 2.12683830e-005 1.66140703e-005 
2.25000000e+000 3.05357143e+001 0.00000000e+000 1.32288209e-005 2.44609515e-005 2.22967729e-005 2.15105563e-005 1.97147857e-005 1.90773635e-005 1.87912325e-005 1.64495652e-005 1.33625140e-005 
2.25000000e+000 2.85714286e+001 0.00000000e+000 4.93693556e-006 1.34002873e-005 1.39551701e-005 1.39025885e-005 1.35937456e-005 1.34022819e-005 1.33046118e-005 1.21933503e-005 1.03696009e-005 
2.25000000e+000 2.62500000e+001 0.00000000e+000 1.60073540e-006 6.74291745e-006 8.18011495e-006 8.45559592e-006 8.90637276e-006 8.97154322e-006 8.98630980e-006 8.68026292e-006 7.77653095e-006 
2.25000000e+000 2.35714286e+001 0.00000000e+000 4.53636160e-007 3.12014707e-006 4.48985065e-006 4.83693554e-006 5.53806733e-006 5.71449132e-006 5.78161917e-006 5.92234457e-006 5.61974456e-006 
2.25000000e+000 2.05357143e+001 0.00000000e+000 1.12657237e-007 1.33312989e-006 2.31364086e-006 2.60811138e-006 3.27211686e-006 3.46644853e-006 3.54583242e-006 3.87154231e-006 3.90674858e-006 
2.25000000e+000 1.71428571e+001 0.00000000e+000 2.48530023e-008 5.29051961e-007 1.12331901e-006 1.32968316e-006 1.84100928e-006 2.00642621e-006 2.07670937e-006 2.42762244e-006 2.61261700e-006 
2.25000000e+000 1.33928571e+001 0.00000000e+000 4.96359230e-009 1.98317747e-007 5.20616271e-007 6.48570595e-007 9.95279971e-007 1.11717263e-006 1.17054233e-006 1.46792780e-006 1.68447851e-006 
2.25000000e+000 9.28571429e+000 0.00000000e+000 9.28550064e-010 7.31403285e-008 2.39697753e-007 3.14751871e-007 5.36601115e-007 6.20635255e-007 6.58391313e-007 8.85829482e-007 1.08113169e-006 
2.25000000e+000 4.82142857e+000 0.00000000e+000 1.84332397e-010 3.01356399e-008 1.22610788e-007 1.69002961e-007 3.16854559e-007 3.76431251e-007 4.03769715e-007 5.78060948e-007 7.43456761e-007 
2.25000000e+000 0.00000000e+000 0.00000000e+000 7.72521395e-011 2.07213241e-008 9.36520169e-008 1.31593205e-007 2.55914373e-007 3.07272880e-007 3.31055798e-007 4.86360874e-007 6.40312221e-007 
2.50000000e+000 3.50000000e+001 0.00000000e+000 1.76733657e-004 1.20000436e-004 7.72326999e-005 6.85240677e-005 5.30473692e-005 4.88824962e-005 4.71745777e-005 3.65866800e-005 2.62803537e-005 
2.50000000e+000 3.48214286e+001 0.00000000e+000 1.47700140e-004 1.07436354e-004 7.08275860e-005 6.32042753e-005 4.95004853e-005 4.57679762e-005 4.42312090e-005 3.45925192e-005 2.50617636e-005 
2.50000000e+000 3.42857143e+001 0.00000000e+000 9.86771040e-005 8.37090759e-005 5.82094117e-005 5.26150583e-005 4.22879614e-005 3.93941275e-005 3.81913019e-005 3.04317052e-005 2.24720450e-005 
2.50000000e+000 3.33928571e+001 0.00000000e+000 5.49663035e-005 5.83392586e-005 4.38496373e-005 4.03832702e-005 3.37023539e-005 3.17400416e-005 3.09114492e-005 2.53041116e-005 1.92041267e-005 