TITLE="3SCB_ER_E_WD140.dat"
VARIABLES= "Density" "Radius" "Height" "0.1053" "0.356" "0.6617" "0.7889" "1.1732" "1.3325" "1.408" "2" "3" 
ZONE T="3D Data" I=11 J=8 K=3 F=POINT
0.00000000e+000 2.18750000e+000 0.00000000e+000 1.27122561e-004 8.69353080e-005 5.76545999e-005 5.18085919e-005 4.13565508e-005 3.84527680e-005 3.72415485e-005 2.93486211e-005 2.10691652e-005 
0.00000000e+000 6.56250000e+000 0.00000000e+000 1.49607887e-004 1.02345664e-004 6.68150713e-005 5.96502116e-005 4.69048084e-005 4.34238867e-005 4.19837531e-005 3.28118997e-005 2.34926575e-005 
0.00000000e+000 1.09375000e+001 0.00000000e+000 1.86579412e-004 1.26980010e-004 8.17047508e-005 7.24806793e-005 5.60956033e-005 5.16798084e-005 4.98663152e-005 3.85802205e-005 2.75099441e-005 
0.00000000e+000 1.53125000e+001 0.00000000e+000 2.16355876e-004 1.46629307e-004 9.37737634e-005 8.29744209e-005 6.37760579e-005 5.86202769e-005 5.65082978e-005 4.34909186e-005 3.09339596e-005 
0.00000000e+000 1.96875000e+001 0.00000000e+000 2.31014872e-004 1.56329009e-004 9.98464708e-005 8.83008523e-005 6.77650759e-005 6.22510157e-005 5.99931079e-005 4.61048689e-005 3.27632250e-005 
0.00000000e+000 2.40625000e+001 0.00000000e+000 2.32748654e-004 1.57327575e-004 1.00631879e-004 8.90622834e-005 6.84734039e-005 6.29342392e-005 6.06638823e-005 4.66625925e-005 3.31591241e-005 
0.00000000e+000 2.84375000e+001 0.00000000e+000 2.29731087e-004 1.55200105e-004 9.94688436e-005 8.81286754e-005 6.79537917e-005 6.25153967e-005 6.02835516e-005 4.64607479e-005 3.30298407e-005 
0.00000000e+000 3.28125000e+001 0.00000000e+000 2.36940219e-004 1.60057321e-004 1.02329770e-004 9.06048742e-005 6.98085858e-005 6.42201855e-005 6.19286077e-005 4.77446790e-005 3.39489032e-005 
2.50000000e-001 2.18750000e+000 0.00000000e+000 2.76219336e-005 3.64003560e-005 2.99794208e-005 2.83490767e-005 2.50343212e-005 2.39535854e-005 2.34767281e-005 1.98238734e-005 1.52177800e-005 
2.50000000e-001 6.56250000e+000 0.00000000e+000 3.37478627e-005 4.36183498e-005 3.51774445e-005 3.30103147e-005 2.86523879e-005 2.72812161e-005 2.66855738e-005 2.23157360e-005 1.70626419e-005 
2.50000000e-001 1.09375000e+001 0.00000000e+000 4.54782118e-005 5.61868787e-005 4.41725909e-005 4.10885330e-005 3.49400046e-005 3.30639230e-005 3.22607288e-005 2.66272016e-005 2.02196725e-005 
2.50000000e-001 1.53125000e+001 0.00000000e+000 5.90800990e-005 6.86170634e-005 5.27514956e-005 4.87664510e-005 4.09007271e-005 3.85420738e-005 3.75399456e-005 3.06862030e-005 2.31468327e-005 
2.50000000e-001 1.96875000e+001 0.00000000e+000 7.35488020e-005 7.89790708e-005 5.93065886e-005 5.45269368e-005 4.52315221e-005 4.24878611e-005 4.13284775e-005 3.35285395e-005 2.51239166e-005 
2.50000000e-001 2.40625000e+001 0.00000000e+000 8.98393104e-005 8.77079952e-005 6.41247974e-005 5.86285444e-005 4.81332268e-005 4.50853723e-005 4.38035434e-005 3.52902484e-005 2.62492503e-005 
2.50000000e-001 2.84375000e+001 0.00000000e+000 1.11271105e-004 9.75117755e-005 6.90953901e-005 6.27652338e-005 5.09300186e-005 4.75564054e-005 4.61449838e-005 3.68943601e-005 2.72062002e-005 
2.50000000e-001 3.28125000e+001 0.00000000e+000 1.50327827e-004 1.16741901e-004 7.93109592e-005 7.13385619e-005 5.68097530e-005 5.27784508e-005 5.11063555e-005 4.03877499e-005 2.94481420e-005 
5.00000000e-001 2.18750000e+000 0.00000000e+000 6.06584475e-006 1.52936634e-005 1.56192669e-005 1.55380946e-005 1.51714863e-005 1.49368398e-005 1.48139403e-005 1.33997057e-005 1.09967789e-005 
5.00000000e-001 6.56250000e+000 0.00000000e+000 7.91498890e-006 1.88344981e-005 1.86602559e-005 1.83855585e-005 1.75817017e-005 1.72085465e-005 1.70267945e-005 1.52195043e-005 1.24163792e-005 
5.00000000e-001 1.09375000e+001 0.00000000e+000 1.20781456e-005 2.56297760e-005 2.43089736e-005 2.36502157e-005 2.19988485e-005 2.13587944e-005 2.10635730e-005 1.85016835e-005 1.49309463e-005 
5.00000000e-001 1.53125000e+001 0.00000000e+000 1.85454343e-005 3.38563978e-005 3.06243441e-005 2.94500094e-005 2.67430718e-005 2.57845173e-005 2.53549299e-005 2.19172048e-005 1.74680357e-005 
5.00000000e-001 1.96875000e+001 0.00000000e+000 2.83864288e-005 4.32182283e-005 3.69867000e-005 3.51235811e-005 3.11230248e-005 2.98024410e-005 2.92232007e-005 2.48591894e-005 1.95297111e-005 
5.00000000e-001 2.40625000e+001 0.00000000e+000 4.38499143e-005 5.44531587e-005 4.37336814e-005 4.09506950e-005 3.53297052e-005 3.35826805e-005 3.28303129e-005 2.74443002e-005 2.11947753e-005 
5.00000000e-001 2.84375000e+001 0.00000000e+000 6.96904062e-005 6.98287048e-005 5.22968637e-005 4.82081157e-005 4.03702088e-005 3.80604514e-005 3.70821064e-005 3.03957154e-005 2.30098561e-005 
5.00000000e-001 3.28125000e+001 0.00000000e+000 1.22460134e-004 9.80145237e-005 6.77082292e-005 6.12182853e-005 4.93547998e-005 4.60406922e-005 4.46618390e-005 3.57031866e-005 2.63791908e-005 
7.50000000e-001 2.18750000e+000 0.00000000e+000 1.34610329e-006 6.44774495e-006 8.15350117e-006 8.53054591e-006 9.20493047e-006 9.32377140e-006 9.35677661e-006 9.06374438e-006 7.95041419e-006 
7.50000000e-001 6.56250000e+000 0.00000000e+000 1.92242710e-006 8.23518314e-006 9.97098882e-006 1.03043331e-005 1.08362048e-005 1.08977470e-005 1.09048476e-005 1.04083330e-005 9.05249842e-006 
7.50000000e-001 1.09375000e+001 0.00000000e+000 3.42903037e-006 1.20124628e-005 1.35990991e-005 1.38075825e-005 1.39928975e-005 1.39244586e-005 1.38735423e-005 1.29391557e-005 1.10755607e-005 
7.50000000e-001 1.53125000e+001 0.00000000e+000 6.37049385e-006 1.74353572e-005 1.82684689e-005 1.82124759e-005 1.77932453e-005 1.75232402e-005 1.73846508e-005 1.58317152e-005 1.32883815e-005 
7.50000000e-001 1.96875000e+001 0.00000000e+000 1.21001692e-005 2.50236376e-005 2.39651627e-005 2.34043798e-005 2.19682006e-005 2.13950079e-005 2.11286333e-005 1.87472028e-005 1.53684678e-005 
7.50000000e-001 2.40625000e+001 0.00000000e+000 2.34982929e-005 3.60540314e-005 3.12613770e-005 2.98419126e-005 2.68027226e-005 2.57852322e-005 2.53356949e-005 2.18355217e-005 1.74047984e-005 
7.50000000e-001 2.84375000e+001 0.00000000e+000 4.71804464e-005 5.33337496e-005 4.16589397e-005 3.88128654e-005 3.32462487e-005 3.15616141e-005 3.08410861e-005 2.57428010e-005 1.98737946e-005 
7.50000000e-001 3.28125000e+001 0.00000000e+000 1.05691111e-004 8.70361245e-005 6.06751807e-005 5.49909962e-005 4.45796936e-005 4.16634699e-005 4.04488830e-005 3.25134571e-005 2.41891568e-005 
1.00000000e+000 2.18750000e+000 0.00000000e+000 3.01792214e-007 2.72762848e-006 4.26452553e-006 4.69109209e-006 5.59128924e-006 5.82597229e-006 5.91566907e-006 6.13515160e-006 5.75074215e-006 
1.00000000e+000 6.56250000e+000 0.00000000e+000 4.81283041e-007 3.64343121e-006 5.36544387e-006 5.81014503e-006 6.70748713e-006 6.92787975e-006 7.00969337e-006 7.13725741e-006 6.61233924e-006 
1.00000000e+000 1.09375000e+001 0.00000000e+000 1.02261472e-006 5.76394560e-006 7.72192774e-006 8.16688496e-006 8.98579507e-006 9.15626378e-006 9.21335561e-006 9.10493281e-006 8.25157492e-006 
1.00000000e+000 1.53125000e+001 0.00000000e+000 2.31464586e-006 9.28217621e-006 1.11489233e-005 1.14935780e-005 1.20217892e-005 1.20767366e-005 1.20811182e-005 1.15542886e-005 1.01844050e-005 
1.00000000e+000 1.96875000e+001 0.00000000e+000 5.43570353e-006 1.50547973e-005 1.59826487e-005 1.60102298e-005 1.58319556e-005 1.56568294e-005 1.55616282e-005 1.43460536e-005 1.22263071e-005 
1.00000000e+000 2.40625000e+001 0.00000000e+000 1.31406171e-005 2.47819156e-005 2.30557260e-005 2.23911447e-005 2.08359097e-005 2.02560744e-005 1.99909854e-005 1.76920797e-005 1.44953041e-005 
1.00000000e+000 2.84375000e+001 0.00000000e+000 3.29747494e-005 4.20604287e-005 3.41820114e-005 3.21499527e-005 2.80776461e-005 2.68084827e-005 2.62601540e-005 2.22448997e-005 1.74466417e-005 
1.00000000e+000 3.28125000e+001 0.00000000e+000 9.32828635e-005 7.91715836e-005 5.57108708e-005 5.05970460e-005 4.11869246e-005 3.85395511e-005 3.74354882e-005 3.01906655e-005 2.25513724e-005 
1.25000000e+000 2.18750000e+000 0.00000000e+000 6.83279945e-008 1.15779004e-006 2.23478784e-006 2.58396292e-006 3.40017413e-006 3.64408161e-006 3.74371261e-006 4.15573396e-006 4.16167038e-006 
1.25000000e+000 6.56250000e+000 0.00000000e+000 1.23608144e-007 1.62968736e-006 2.90656167e-006 3.29511767e-006 4.16918033e-006 4.42066186e-006 4.52196634e-006 4.90710925e-006 4.83884417e-006 
1.25000000e+000 1.09375000e+001 0.00000000e+000 3.16061425e-007 2.82136951e-006 4.44351374e-006 4.88776808e-006 5.82149441e-006 6.06926333e-006 6.16570036e-006 6.44434068e-006 6.17335576e-006 
1.25000000e+000 1.53125000e+001 0.00000000e+000 8.71968213e-007 5.06832864e-006 6.93268889e-006 7.37759091e-006 8.23141842e-006 8.42592375e-006 8.49552222e-006 8.51125214e-006 7.85932607e-006 
1.25000000e+000 1.96875000e+001 0.00000000e+000 2.51930726e-006 9.29585054e-006 1.08902518e-005 1.11734255e-005 1.16013266e-005 1.16377281e-005 1.16363084e-005 1.11149551e-005 9.81996775e-006 
1.25000000e+000 2.40625000e+001 0.00000000e+000 7.53024644e-006 1.74240062e-005 1.73612250e-005 1.71398248e-005 1.64878202e-005 1.61848839e-005 1.60380458e-005 1.45410708e-005 1.22129439e-005 
1.25000000e+000 2.84375000e+001 0.00000000e+000 2.34697478e-005 3.37582722e-005 2.85458683e-005 2.70993663e-005 2.41084523e-005 2.31416913e-005 2.27189626e-005 1.95022068e-005 1.55073252e-005 
1.25000000e+000 3.28125000e+001 0.00000000e+000 8.34221912e-005 7.29167292e-005 5.18283820e-005 4.71767929e-005 3.85652042e-005 3.61278062e-005 3.51094178e-005 2.83927847e-005 2.12701906e-005 
1.50000000e+000 2.18750000e+000 0.00000000e+000 1.56131537e-008 4.93084910e-007 1.17337111e-006 1.42564032e-006 2.07007672e-006 2.28165181e-006 2.37148840e-006 2.81691919e-006 3.01315053e-006 
1.50000000e+000 6.56250000e+000 0.00000000e+000 3.24291842e-008 7.36323505e-007 1.58454612e-006 1.87911223e-006 2.60186392e-006 2.83102726e-006 2.92721985e-006 3.38248472e-006 3.54742360e-006 
1.50000000e+000 1.09375000e+001 0.00000000e+000 1.00283371e-007 1.40425039e-006 2.58724477e-006 2.95624141e-006 3.80207631e-006 4.05285866e-006 4.15557204e-006 4.58625486e-006 4.63697240e-006 
1.50000000e+000 1.53125000e+001 0.00000000e+000 3.36752747e-007 2.82128773e-006 4.37718741e-006 4.80266495e-006 5.70104101e-006 5.94173382e-006 6.03607235e-006 6.32194338e-006 6.10337965e-006 
1.50000000e+000 1.96875000e+001 0.00000000e+000 1.19245947e-006 5.84486848e-006 7.53994629e-006 7.91731737e-006 8.61449837e-006 8.75972892e-006 8.80858325e-006 8.70157835e-006 7.95303975e-006 
1.50000000e+000 2.40625000e+001 0.00000000e+000 4.38764268e-006 1.24324592e-005 1.32599353e-005 1.33037427e-005 1.32174430e-005 1.30957502e-005 1.30274009e-005 1.20850534e-005 1.03877328e-005 
1.50000000e+000 2.84375000e+001 0.00000000e+000 1.69178206e-005 2.73935038e-005 2.41064508e-005 2.30994360e-005 2.09316877e-005 2.01976186e-005 1.98718081e-005 1.72766610e-005 1.39142742e-005 
1.50000000e+000 3.28125000e+001 0.00000000e+000 7.53133447e-005 6.76729907e-005 4.85978479e-005 4.43417472e-005 3.64121406e-005 3.41524935e-005 3.32062930e-005 2.69286704e-005 2.02265571e-005 
1.75000000e+000 2.18750000e+000 0.00000000e+000 3.59804372e-009 2.10684829e-007 6.17249373e-007 7.87843614e-007 1.26172783e-006 1.43004802e-006 1.50368871e-006 1.91075300e-006 2.18264456e-006 
1.75000000e+000 6.56250000e+000 0.00000000e+000 8.65971290e-009 3.35748139e-007 8.68995128e-007 1.07722154e-006 1.63001236e-006 1.81933358e-006 1.90120741e-006 2.33738671e-006 2.60527150e-006 
1.75000000e+000 1.09375000e+001 0.00000000e+000 3.24549093e-008 7.08694883e-007 1.52203560e-006 1.80479305e-006 2.50148402e-006 2.72473850e-006 2.81910881e-006 3.28064476e-006 3.49613738e-006 
1.75000000e+000 1.53125000e+001 0.00000000e+000 1.32449857e-007 1.59392432e-006 2.79812853e-006 3.16291914e-006 3.98727753e-006 4.22859945e-006 4.32709973e-006 4.73052583e-006 4.76700883e-006 
1.75000000e+000 1.96875000e+001 0.00000000e+000 5.73278596e-007 3.72372062e-006 5.28369942e-006 5.67582874e-006 6.46430336e-006 6.66044728e-006 6.73452412e-006 6.87160704e-006 6.48745159e-006 
1.75000000e+000 2.40625000e+001 0.00000000e+000 2.58893199e-006 8.96322181e-006 1.02299501e-005 1.04296536e-005 1.06979743e-005 1.06966129e-005 1.06812704e-005 1.01314889e-005 8.90348566e-006 
1.75000000e+000 2.84375000e+001 0.00000000e+000 1.23152433e-005 2.23994393e-005 2.05125035e-005 1.98407971e-005 1.83144525e-005 1.77648644e-005 1.75162515e-005 1.54217772e-005 1.25749696e-005 
1.75000000e+000 3.28125000e+001 0.00000000e+000 6.85054208e-005 6.31482643e-005 4.58092994e-005 4.18990505e-005 3.45691485e-005 3.24659060e-005 3.15831400e-005 2.56882153e-005 1.93466767e-005 
2.00000000e+000 2.18750000e+000 0.00000000e+000 8.35568147e-010 9.03083939e-008 3.25313798e-007 4.36083737e-007 7.69903302e-007 8.97201144e-007 9.54358405e-007 1.29699223e-006 1.58180835e-006 
2.00000000e+000 6.56250000e+000 0.00000000e+000 2.34680696e-009 1.54369245e-007 4.79234840e-007 6.20577226e-007 1.02493180e-006 1.17308719e-006 1.23877610e-006 1.61911054e-006 1.91665426e-006 
2.00000000e+000 1.09375000e+001 0.00000000e+000 1.06664973e-008 3.61820348e-007 9.03468599e-007 1.11094977e-006 1.65675911e-006 1.84316253e-006 1.92388972e-006 2.35789781e-006 2.64541319e-006 
2.00000000e+000 1.53125000e+001 0.00000000e+000 5.28385110e-008 9.11031998e-007 1.80685560e-006 2.10306579e-006 2.81194640e-006 3.03321501e-006 3.12594958e-006 3.56283950e-006 3.74263952e-006 
2.00000000e+000 1.96875000e+001 0.00000000e+000 2.79008462e-007 2.39616866e-006 3.73720513e-006 4.10599263e-006 4.89178144e-006 5.10576425e-006 5.19042117e-006 5.46591004e-006 5.32475321e-006 
2.00000000e+000 2.40625000e+001 0.00000000e+000 1.54317518e-006 6.51265406e-006 7.95150837e-006 8.23733331e-006 8.72186614e-006 8.80001973e-006 8.82050082e-006 8.55189418e-006 7.67919123e-006 
2.00000000e+000 2.84375000e+001 0.00000000e+000 9.03740118e-006 1.84225062e-005 1.75512015e-005 1.71364276e-005 1.61144487e-005 1.57132503e-005 1.55271358e-005 1.38440422e-005 1.14275503e-005 
2.00000000e+000 3.28125000e+001 0.00000000e+000 6.27067182e-005 5.91742593e-005 4.33473732e-005 3.97428432e-005 3.29473831e-005 3.09842804e-005 3.01583980e-005 2.46057395e-005 1.85838309e-005 
2.25000000e+000 2.18750000e+000 0.00000000e+000 1.95386406e-010 3.88294570e-008 1.71770498e-007 2.41763779e-007 4.70321168e-007 5.63461701e-007 6.06288646e-007 8.80991720e-007 1.14691945e-006 
2.25000000e+000 6.56250000e+000 0.00000000e+000 6.43932325e-010 7.15080041e-008 2.65662276e-007 3.59163105e-007 6.46724895e-007 7.58810927e-007 8.09628704e-007 1.12418658e-006 1.41242902e-006 
2.25000000e+000 1.09375000e+001 0.00000000e+000 3.54926468e-009 1.86518549e-007 5.40496868e-007 6.88824558e-007 1.10387073e-006 1.25380029e-006 1.32008393e-006 1.70216650e-006 2.00844338e-006 
2.25000000e+000 1.53125000e+001 0.00000000e+000 2.13226384e-008 5.25584465e-007 1.17646678e-006 1.40950994e-006 1.99713207e-006 2.19051393e-006 2.27323529e-006 2.69881832e-006 2.95220849e-006 
2.25000000e+000 1.96875000e+001 0.00000000e+000 1.37169102e-007 1.55412351e-006 2.66284898e-006 2.99180093e-006 3.72704125e-006 3.94006002e-006 4.02672501e-006 4.37415121e-006 4.39372603e-006 
2.25000000e+000 2.40625000e+001 0.00000000e+000 9.27695664e-007 4.76148669e-006 6.21640546e-006 6.54323879e-006 7.15095848e-006 7.28035566e-006 7.32466209e-006 7.25783796e-006 6.65717171e-006 
2.25000000e+000 2.84375000e+001 0.00000000e+000 6.67776453e-006 1.52226781e-005 1.50817963e-005 1.48635534e-005 1.42389227e-005 1.39577982e-005 1.38226598e-005 1.24813575e-005 1.04296014e-005 
2.25000000e+000 3.28125000e+001 0.00000000e+000 5.77133004e-005 5.56418577e-005 4.11415566e-005 3.78091393e-005 3.14934855e-005 2.96571169e-005 2.88827723e-005 2.36405105e-005 1.79077318e-005 
2.50000000e+000 2.18750000e+000 0.00000000e+000 4.59708261e-011 1.67448155e-008 9.08623086e-008 1.34243625e-007 2.87631501e-007 3.54218458e-007 3.85530676e-007 5.98834269e-007 8.31992952e-007 
2.50000000e+000 6.56250000e+000 0.00000000e+000 1.78559217e-010 3.33479441e-008 1.47978261e-007 2.08766478e-007 4.09436348e-007 4.92330194e-007 5.30698552e-007 7.82311394e-007 1.04256181e-006 
2.50000000e+000 1.09375000e+001 0.00000000e+000 1.19315724e-009 9.69357540e-008 3.25553911e-007 4.29820306e-007 7.39450337e-007 8.57207846e-007 9.10240617e-007 1.23379340e-006 1.52967000e-006 
2.50000000e+000 1.53125000e+001 0.00000000e+000 8.68773879e-009 3.05538113e-007 7.71304186e-007 9.50974981e-007 1.42700136e-006 1.59114971e-006 1.66259413e-006 2.05466797e-006 2.33856948e-006 
2.50000000e+000 1.96875000e+001 0.00000000e+000 6.80169638e-008 1.01451271e-006 1.90866953e-006 2.19271345e-006 2.85547193e-006 3.05715979e-006 3.14090357e-006 3.51828246e-006 3.64210487e-006 
2.50000000e+000 2.40625000e+001 0.00000000e+000 5.61800751e-007 3.49907137e-006 4.88262080e-006 5.22146381e-006 5.88937227e-006 6.05007760e-006 6.10965643e-006 6.18659149e-006 5.79547832e-006 
2.50000000e+000 2.84375000e+001 0.00000000e+000 4.96398774e-006 1.26280724e-005 1.30048186e-005 1.29360448e-005 1.26237404e-005 1.24399002e-005 1.23464432e-005 1.12907917e-005 9.55125171e-006 
2.50000000e+000 3.28125000e+001 0.00000000e+000 5.33752611e-005 5.24743874e-005 3.91448201e-005 3.60558829e-005 3.01731579e-005 2.84520380e-005 2.77246685e-005 2.27661939e-005 1.72982232e-005 
0.00000000e+000 2.18750000e+000 1.00000000e+001 1.10429680e-004 7.69172254e-005 5.07446665e-005 4.54893510e-005 3.61484893e-005 3.35803093e-005 3.25130123e-005 2.56025836e-005 1.83870236e-005 
0.00000000e+000 6.56250000e+000 1.00000000e+001 1.23071977e-004 8.53143248e-005 5.57687338e-005 4.98029459e-005 3.92163009e-005 3.63313245e-005 3.51379395e-005 2.75185869e-005 1.97217836e-005 
0.00000000e+000 1.09375000e+001 1.00000000e+001 1.41905207e-004 9.76377614e-005 6.32819407e-005 5.63006272e-005 4.39013946e-005 4.05451054e-005 3.91627348e-005 3.04652434e-005 2.17670602e-005 
0.00000000e+000 1.53125000e+001 1.00000000e+001 1.56494076e-004 1.07130329e-004 6.91520933e-005 6.14232670e-005 4.76793286e-005 4.39648637e-005 4.24373400e-005 3.28899293e-005 2.34526735e-005 
0.00000000e+000 1.96875000e+001 1.00000000e+001 1.65736953e-004 1.13288698e-004 7.29684188e-005 6.47619967e-005 5.01689357e-005 4.62284659e-005 4.46090319e-005 3.45148304e-005 2.45865679e-005 
0.00000000e+000 2.40625000e+001 1.00000000e+001 1.71071902e-004 1.16847875e-004 7.51265698e-005 6.66408994e-005 5.15678044e-005 4.75032321e-005 4.58335827e-005 3.54390877e-005 2.52315494e-005 
0.00000000e+000 2.84375000e+001 1.00000000e+001 1.78219289e-004 1.21688895e-004 7.79927182e-005 6.91077715e-005 5.33550591e-005 4.91204872e-005 4.73831151e-005 3.65975101e-005 2.60398933e-005 
0.00000000e+000 3.28125000e+001 1.00000000e+001 1.96887440e-004 1.34166155e-004 8.54487910e-005 7.55288085e-005 5.79820447e-005 5.32930270e-005 5.13744680e-005 3.95534743e-005 2.81040225e-005 
2.50000000e-001 2.18750000e+000 1.00000000e+001 2.35343185e-005 3.18511757e-005 2.61667662e-005 2.46998709e-005 2.17411061e-005 2.07914767e-005 2.03746603e-005 1.72064184e-005 1.32249871e-005 
2.50000000e-001 6.56250000e+000 1.00000000e+001 2.71513986e-005 3.58994986e-005 2.90782578e-005 2.73144518e-005 2.37759553e-005 2.26634437e-005 2.21797732e-005 1.86052960e-005 1.42536915e-005 
2.50000000e-001 1.09375000e+001 1.00000000e+001 3.35716013e-005 4.24553655e-005 3.37577981e-005 3.15230041e-005 2.70618422e-005 2.56867835e-005 2.50947782e-005 2.08558049e-005 1.58906940e-005 
2.50000000e-001 1.53125000e+001 1.00000000e+001 4.08952316e-005 4.88453318e-005 3.81355502e-005 3.54432876e-005 3.01131839e-005 2.84925225e-005 2.77989061e-005 2.29315420e-005 1.73759330e-005 
2.50000000e-001 1.96875000e+001 1.00000000e+001 4.94517333e-005 5.50791816e-005 4.20942879e-005 3.89283873e-005 3.27469065e-005 3.08962046e-005 3.01084062e-005 2.46699969e-005 1.85853528e-005 
2.50000000e-001 2.40625000e+001 1.00000000e+001 6.06828321e-005 6.19511744e-005 4.60711068e-005 4.23416847e-005 3.51974711e-005 3.31006404e-005 3.22137727e-005 2.61975196e-005 1.95989654e-005 
2.50000000e-001 2.84375000e+001 1.00000000e+001 7.87447277e-005 7.23986394e-005 5.19422123e-005 4.73305270e-005 3.86942881e-005 3.62236357e-005 3.51876603e-005 2.83220161e-005 2.09929384e-005 
2.50000000e-001 3.28125000e+001 1.00000000e+001 1.17249837e-004 9.41509019e-005 6.42006921e-005 5.77503604e-005 4.59929583e-005 4.27405140e-005 4.13932928e-005 3.27672765e-005 2.39522835e-005 
5.00000000e-001 2.18750000e+000 1.00000000e+001 5.06950955e-006 1.32354855e-005 1.35196489e-005 1.34340655e-005 1.30911517e-005 1.28864922e-005 1.27805635e-005 1.15719209e-005 9.51680061e-006 
5.00000000e-001 6.56250000e+000 1.00000000e+001 6.23678662e-006 1.53125834e-005 1.52797135e-005 1.50801357e-005 1.44816840e-005 1.41958580e-005 1.40553529e-005 1.26149459e-005 1.03219690e-005 
5.00000000e-001 1.09375000e+001 1.00000000e+001 8.70854005e-006 1.90726554e-005 1.83521509e-005 1.79382663e-005 1.68730096e-005 1.64402208e-005 1.62371059e-005 1.43790018e-005 1.16578662e-005 
5.00000000e-001 1.53125000e+001 1.00000000e+001 1.24501922e-005 2.35925557e-005 2.17594566e-005 2.10596965e-005 1.94178986e-005 1.88116944e-005 1.85353004e-005 1.61976712e-005 1.29908436e-005 
5.00000000e-001 1.96875000e+001 1.00000000e+001 1.82738943e-005 2.92168756e-005 2.55975653e-005 2.44897441e-005 2.20827584e-005 2.12614596e-005 2.08958637e-005 1.80001554e-005 1.42531614e-005 
5.00000000e-001 2.40625000e+001 1.00000000e+001 2.80259045e-005 3.69408323e-005 3.04020493e-005 2.86742285e-005 2.51604256e-005 2.40447476e-005 2.35592659e-005 1.99477610e-005 1.55457021e-005 
5.00000000e-001 2.84375000e+001 1.00000000e+001 4.64449625e-005 4.96232686e-005 3.79223022e-005 3.51403423e-005 2.97851935e-005 2.81929727e-005 2.75154324e-005 2.27874597e-005 1.74018875e-005 
5.00000000e-001 3.28125000e+001 1.00000000e+001 9.20992871e-005 7.68288251e-005 5.34692514e-005 4.83958903e-005 3.91113597e-005 3.65226844e-005 3.54466149e-005 2.84455085e-005 2.11208342e-005 
7.50000000e-001 2.18750000e+000 1.00000000e+001 1.10365119e-006 5.51901373e-006 6.99897932e-006 7.31891652e-006 7.89183872e-006 7.99525544e-006 8.02482633e-006 7.78804565e-006 6.85170171e-006 
7.50000000e-001 6.56250000e+000 1.00000000e+001 1.48562662e-006 6.61686645e-006 8.08980066e-006 8.37958235e-006 8.86077305e-006 8.92805816e-006 8.94131435e-006 8.57740126e-006 7.48932628e-006 
7.50000000e-001 1.09375000e+001 1.00000000e+001 2.42663952e-006 8.82189976e-006 1.01539291e-005 1.03639078e-005 1.06349806e-005 1.06249737e-005 1.06037784e-005 9.98156957e-006 8.59346169e-006 
7.50000000e-001 1.53125000e+001 1.00000000e+001 4.18625427e-006 1.19446570e-005 1.27898685e-005 1.28415745e-005 1.27596643e-005 1.26330633e-005 1.25611300e-005 1.15808429e-005 9.79604929e-006 
7.50000000e-001 1.96875000e+001 1.00000000e+001 7.56426532e-006 1.65103802e-005 1.62378461e-005 1.59923259e-005 1.53119081e-005 1.50056160e-005 1.48576105e-005 1.33769951e-005 1.10758977e-005 
7.50000000e-001 2.40625000e+001 1.00000000e+001 1.44682570e-005 2.37083106e-005 2.11472680e-005 2.03589798e-005 1.86528744e-005 1.80587255e-005 1.77915058e-005 1.55710220e-005 1.25573823e-005 
7.50000000e-001 2.84375000e+001 1.00000000e+001 3.01586976e-005 3.66372181e-005 2.93281354e-005 2.75034352e-005 2.39185504e-005 2.28197425e-005 2.23466557e-005 1.88957443e-005 1.47565699e-005 
7.50000000e-001 3.28125000e+001 1.00000000e+001 7.76529201e-005 6.68323296e-005 4.70121510e-005 4.26744867e-005 3.47214333e-005 3.24979007e-005 3.15725493e-005 2.55101262e-005 1.91032630e-005 
1.00000000e+000 2.18750000e+000 1.00000000e+001 2.42777405e-007 2.30930975e-006 3.63040724e-006 3.99402530e-006 4.76301319e-006 4.96566621e-006 5.04367006e-006 5.24516604e-006 4.93534507e-006 
1.00000000e+000 6.56250000e+000 1.00000000e+001 3.65168639e-007 2.89451586e-006 4.31435395e-006 4.68546630e-006 5.44561706e-006 5.63731541e-006 5.70951974e-006 5.84826066e-006 5.44448723e-006 
1.00000000e+000 1.09375000e+001 1.00000000e+001 7.12442064e-007 4.18483549e-006 5.70851126e-006 6.07187445e-006 6.77164299e-006 6.92988450e-006 6.98577257e-006 6.97436851e-006 6.36383646e-006 
1.00000000e+000 1.53125000e+001 1.00000000e+001 1.49626703e-006 6.27305346e-006 7.70827101e-006 8.00637944e-006 8.52603249e-006 8.61397575e-006 8.63780162e-006 8.37270757e-006 7.44649777e-006 
1.00000000e+000 1.96875000e+001 1.00000000e+001 3.32450390e-006 9.74493757e-006 1.06399694e-005 1.07547420e-005 1.08645835e-005 1.08173751e-005 1.07823157e-005 1.01016604e-005 8.70949624e-006 
1.00000000e+000 2.40625000e+001 1.00000000e+001 7.86680848e-006 1.59017266e-005 1.52503646e-005 1.49476666e-005 1.42154804e-005 1.39167979e-005 1.37755144e-005 1.24030939e-005 1.03019619e-005 
1.00000000e+000 2.84375000e+001 1.00000000e+001 2.04101669e-005 2.81214041e-005 2.34850849e-005 2.22522645e-005 1.97704593e-005 1.89838386e-005 1.86410244e-005 1.60268509e-005 1.27411829e-005 
1.00000000e+000 3.28125000e+001 1.00000000e+001 6.73948782e-005 5.98486867e-005 4.25256563e-005 3.86919043e-005 3.16319901e-005 2.96498287e-005 2.88238492e-005 2.33847803e-005 1.75998753e-005 
1.25000000e+000 2.18750000e+000 1.00000000e+001 5.39424528e-008 9.69595183e-007 1.88679132e-006 2.18321780e-006 2.87797796e-006 3.08723266e-006 3.17308914e-006 3.53506408e-006 3.55670616e-006 
1.25000000e+000 6.56250000e+000 1.00000000e+001 9.21580772e-008 1.28068366e-006 2.31689422e-006 2.63565407e-006 3.36114988e-006 3.57322650e-006 3.65926010e-006 3.99828511e-006 3.96544947e-006 
1.25000000e+000 1.09375000e+001 1.00000000e+001 2.17123420e-007 2.02792506e-006 3.25545673e-006 3.60246203e-006 4.35248613e-006 4.55858862e-006 4.64001658e-006 4.90341207e-006 4.73360107e-006 
1.25000000e+000 1.53125000e+001 1.00000000e+001 5.55824993e-007 3.38723866e-006 4.74237908e-006 5.08573071e-006 5.78083719e-006 5.95282525e-006 6.01713353e-006 6.11471829e-006 5.70277997e-006 
1.25000000e+000 1.96875000e+001 1.00000000e+001 1.51344778e-006 5.92475604e-006 7.14359655e-006 7.39785721e-006 7.85417876e-006 7.93516726e-006 7.95815451e-006 7.73360008e-006 6.92098086e-006 
1.25000000e+000 2.40625000e+001 1.00000000e+001 4.40606036e-006 1.09593079e-005 1.12705950e-005 1.12345912e-005 1.10582375e-005 1.09360204e-005 1.08711813e-005 1.00407735e-005 8.56197016e-006 
1.25000000e+000 2.84375000e+001 1.00000000e+001 1.41466126e-005 2.20685151e-005 1.92142401e-005 1.83864880e-005 1.66647782e-005 1.60950853e-005 1.58431038e-005 1.38220791e-005 1.11571688e-005 
1.25000000e+000 3.28125000e+001 1.00000000e+001 5.95025568e-005 5.44362593e-005 3.90852701e-005 3.56464836e-005 2.92769124e-005 2.74780374e-005 2.67270497e-005 2.17540895e-005 1.64306595e-005 
1.50000000e+000 2.18750000e+000 1.00000000e+001 1.20990125e-008 4.08478604e-007 9.82507200e-007 1.19537010e-006 1.74098021e-006 1.92135120e-006 1.99821159e-006 2.38419695e-006 2.56442257e-006 
1.50000000e+000 6.56250000e+000 1.00000000e+001 2.37718930e-008 5.72589244e-007 1.25241759e-006 1.49110175e-006 2.08318813e-006 2.27335945e-006 2.35360412e-006 2.74074627e-006 2.89357342e-006 
1.50000000e+000 1.09375000e+001 1.00000000e+001 6.79782788e-008 1.00027303e-006 1.88002055e-006 2.16155539e-006 2.82178804e-006 3.02241911e-006 3.10535324e-006 3.46752694e-006 3.53589364e-006 
1.50000000e+000 1.53125000e+001 1.00000000e+001 2.11903860e-007 1.86768169e-006 2.96686392e-006 3.28072717e-006 3.96900258e-006 4.16202960e-006 4.23912396e-006 4.50627522e-006 4.39737328e-006 
1.50000000e+000 1.96875000e+001 1.00000000e+001 7.05220154e-007 3.67711578e-006 4.88412066e-006 5.17734582e-006 5.76332760e-006 5.90379433e-006 5.95529851e-006 5.98974865e-006 5.55059870e-006 
1.50000000e+000 2.40625000e+001 1.00000000e+001 2.51732054e-006 7.68874727e-006 8.47165608e-006 8.58445492e-006 8.73397316e-006 8.72078381e-006 8.70399986e-006 8.23307012e-006 7.19265092e-006 
1.50000000e+000 2.84375000e+001 1.00000000e+001 9.96802347e-006 1.75650012e-005 1.59410085e-005 1.54045872e-005 1.42374781e-005 1.38280207e-005 1.36433766e-005 1.20678946e-005 9.87742144e-006 
1.50000000e+000 3.28125000e+001 1.00000000e+001 5.31776421e-005 5.00034760e-005 3.62794349e-005 3.31691239e-005 2.73726865e-005 2.57247938e-005 2.50353291e-005 2.04406244e-005 1.54856080e-005 
1.75000000e+000 2.18750000e+000 1.00000000e+001 2.73747774e-009 1.72661024e-007 5.12607407e-007 6.55575424e-007 1.05438481e-006 1.19698407e-006 1.25957221e-006 1.60913750e-006 1.84987356e-006 
1.75000000e+000 6.56250000e+000 1.00000000e+001 6.24359614e-009 2.58443566e-007 6.81197907e-007 8.48159810e-007 1.29627489e-006 1.45156372e-006 1.51902854e-006 1.88356631e-006 2.11527629e-006 
1.75000000e+000 1.09375000e+001 1.00000000e+001 2.17132916e-008 5.00644738e-007 1.09768087e-006 1.30995641e-006 1.84379143e-006 2.01840760e-006 2.09276084e-006 2.46549236e-006 2.65185573e-006 
1.75000000e+000 1.53125000e+001 1.00000000e+001 8.23147571e-008 1.04633032e-006 1.88131228e-006 2.14332943e-006 2.75430800e-006 2.93932375e-006 3.01579734e-006 3.34774634e-006 3.41202505e-006 
1.75000000e+000 1.96875000e+001 1.00000000e+001 3.34224938e-007 2.31630073e-006 3.38538895e-006 3.67160015e-006 4.27974046e-006 4.44289526e-006 4.50670937e-006 4.68452554e-006 4.48733313e-006 
1.75000000e+000 2.40625000e+001 1.00000000e+001 1.45962227e-006 5.46222462e-006 6.44538109e-006 6.63827841e-006 6.97713507e-006 7.03204835e-006 7.04594572e-006 6.81937553e-006 6.09592094e-006 
1.75000000e+000 2.84375000e+001 1.00000000e+001 7.11215645e-006 1.41205110e-005 1.33540000e-005 1.30314652e-005 1.22805403e-005 1.19936269e-005 1.18607589e-005 1.06329621e-005 8.81889693e-006 
1.75000000e+000 3.28125000e+001 1.00000000e+001 4.79781410e-005 4.62556537e-005 3.39025172e-005 3.10727606e-005 2.57683679e-005 2.42501851e-005 2.36135145e-005 1.93412845e-005 1.46961432e-005 
2.00000000e+000 2.18750000e+000 1.00000000e+001 6.24287130e-010 7.32203669e-008 2.67955750e-007 3.60124294e-007 6.39294803e-007 7.46470306e-007 7.94740938e-007 1.08680008e-006 1.33507302e-006 
2.00000000e+000 6.56250000e+000 1.00000000e+001 1.66462028e-009 1.17654020e-007 3.72650510e-007 4.84910884e-007 8.09686883e-007 9.30039471e-007 9.83632312e-007 1.29770626e-006 1.54907567e-006 