TITLE="3SCB_EB_E_WD175.dat"
VARIABLES= "Density" "Radius" "Height" "0.1053" "0.356" "0.6617" "0.7889" "1.1732" "1.3325" "1.408" "2" "3" 
ZONE T="3D Data" I=11 J=8 K=3 F=POINT
0.00000000e+000 8.75000000e+000 0.00000000e+000 1.28034000e-004 8.77921559e-005 5.69979717e-005 5.07754314e-005 3.97503261e-005 3.67620913e-005 3.55293089e-005 2.77215989e-005 1.98220937e-005 
0.00000000e+000 1.51554446e+001 0.00000000e+000 1.88113863e-004 1.27733647e-004 8.17703835e-005 7.23884997e-005 5.57131397e-005 5.12314956e-005 4.93946607e-005 3.80497755e-005 2.70618048e-005 
0.00000000e+000 1.95655948e+001 0.00000000e+000 2.21485479e-004 1.49770953e-004 9.54513621e-005 8.43492961e-005 6.46160780e-005 5.93253225e-005 5.71603483e-005 4.38725806e-005 3.11502286e-005 
0.00000000e+000 2.31503240e+001 0.00000000e+000 2.37052556e-004 1.60022989e-004 1.01936092e-004 9.00660165e-005 6.89630791e-005 6.33045753e-005 6.09892859e-005 4.67879699e-005 3.32107947e-005 
0.00000000e+000 2.62500000e+001 0.00000000e+000 2.43179571e-004 1.64022940e-004 1.04586066e-004 9.24531080e-005 7.08777183e-005 6.50862655e-005 6.27152753e-005 4.81480871e-005 3.41832516e-005 
0.00000000e+000 2.90204669e+001 0.00000000e+000 2.45435183e-004 1.65401250e-004 1.05615951e-004 9.34310156e-005 7.17608684e-005 6.59360042e-005 6.35494769e-005 4.88488991e-005 3.46936436e-005 
0.00000000e+000 3.15485737e+001 0.00000000e+000 2.46246264e-004 1.65867328e-004 1.06055758e-004 9.38853659e-005 7.22445642e-005 6.64209928e-005 6.40332281e-005 4.92859797e-005 3.50188859e-005 
0.00000000e+000 3.38886043e+001 0.00000000e+000 2.49082471e-004 1.67867086e-004 1.07341966e-004 9.50441407e-005 7.32001860e-005 6.73238267e-005 6.49139598e-005 5.00097309e-005 3.55473342e-005 
2.50000000e-001 8.75000000e+000 0.00000000e+000 2.97967399e-005 3.79787029e-005 3.03237313e-005 2.83656774e-005 2.44662129e-005 2.32592014e-005 2.27379035e-005 1.89606906e-005 1.44627877e-005 
2.50000000e-001 1.51554446e+001 0.00000000e+000 5.04628224e-005 5.92871680e-005 4.57402340e-005 4.23290647e-005 3.55864826e-005 3.35586366e-005 3.26958806e-005 2.67681489e-005 2.02022248e-005 
2.50000000e-001 1.95655948e+001 0.00000000e+000 6.87257941e-005 7.48302903e-005 5.62820833e-005 5.17480639e-005 4.29128743e-005 4.03034441e-005 3.92009272e-005 3.17907871e-005 2.38202533e-005 
2.50000000e-001 2.31503240e+001 0.00000000e+000 8.51900763e-005 8.62048764e-005 6.34364669e-005 5.80373799e-005 4.76627610e-005 4.46417493e-005 4.33712337e-005 3.49446857e-005 2.60285436e-005 
2.50000000e-001 2.62500000e+001 0.00000000e+000 1.01761785e-004 9.56637871e-005 6.89120661e-005 6.27601404e-005 5.11037336e-005 4.77531377e-005 4.63494694e-005 3.71355991e-005 2.75010316e-005 
2.50000000e-001 2.90204669e+001 0.00000000e+000 1.19852473e-004 1.04724770e-004 7.38579021e-005 6.69663481e-005 5.40860815e-005 5.04289028e-005 4.89022276e-005 3.89720198e-005 2.86921004e-005 
2.50000000e-001 3.15485737e+001 0.00000000e+000 1.39958793e-004 1.14028946e-004 7.87577023e-005 7.10946566e-005 5.69585202e-005 5.29920206e-005 5.13418642e-005 4.07009065e-005 2.97890934e-005 
2.50000000e-001 3.38886043e+001 0.00000000e+000 1.67484352e-004 1.26706103e-004 8.53919177e-005 7.66606728e-005 6.07885013e-005 5.63984015e-005 5.45800040e-005 4.29845347e-005 3.12469947e-005 
5.00000000e-001 8.75000000e+000 0.00000000e+000 7.36460937e-006 1.67684211e-005 1.63225590e-005 1.60056647e-005 1.51647305e-005 1.48082190e-005 1.46384944e-005 1.30248050e-005 1.05840943e-005 
5.00000000e-001 1.51554446e+001 0.00000000e+000 1.54021165e-005 2.88789505e-005 2.63272615e-005 2.53679569e-005 2.31320866e-005 2.23298009e-005 2.19686220e-005 1.90401534e-005 1.51976841e-005 
5.00000000e-001 1.95655948e+001 0.00000000e+000 2.54760417e-005 4.01781591e-005 3.46674068e-005 3.29698541e-005 2.92842354e-005 2.80573738e-005 2.75181462e-005 2.34376542e-005 1.84374005e-005 
5.00000000e-001 2.31503240e+001 0.00000000e+000 3.78492715e-005 5.09392287e-005 4.18131736e-005 3.93159906e-005 3.41588382e-005 3.25271688e-005 3.18213307e-005 2.67147428e-005 2.07384535e-005 
5.00000000e-001 2.62500000e+001 0.00000000e+000 5.38662350e-005 6.22939383e-005 4.87090228e-005 4.53019904e-005 3.85437130e-005 3.64907410e-005 3.56138597e-005 2.94916072e-005 2.25906424e-005 
5.00000000e-001 2.90204669e+001 0.00000000e+000 7.48623216e-005 7.50389623e-005 5.59987258e-005 5.15361704e-005 4.29718750e-005 4.04563922e-005 3.93932681e-005 3.21879269e-005 2.43264047e-005 
5.00000000e-001 3.15485737e+001 0.00000000e+000 1.02000711e-004 8.95577037e-005 6.39442360e-005 5.82590659e-005 4.76453508e-005 4.46153037e-005 4.33462233e-005 3.49606322e-005 2.60731826e-005 
5.00000000e-001 3.38886043e+001 0.00000000e+000 1.43386183e-004 1.09789469e-004 7.47045582e-005 6.72976077e-005 5.38374831e-005 5.01039969e-005 4.85549428e-005 3.85864999e-005 2.83534836e-005 
7.50000000e-001 8.75000000e+000 0.00000000e+000 1.91964238e-006 7.54823142e-006 8.88579497e-006 9.11921758e-006 9.46387275e-006 9.48553485e-006 9.47910254e-006 8.98536136e-006 7.76848161e-006 
7.50000000e-001 1.51554446e+001 0.00000000e+000 5.13431948e-006 1.46417255e-005 1.55385168e-005 1.55392598e-005 1.52781087e-005 1.50734301e-005 1.49652843e-005 1.36832488e-005 1.15163138e-005 
7.50000000e-001 1.95655948e+001 0.00000000e+000 1.04274586e-005 2.27461391e-005 2.21176322e-005 2.16681234e-005 2.04530189e-005 1.99482497e-005 1.97114194e-005 1.75468780e-005 1.44294514e-005 
7.50000000e-001 2.31503240e+001 0.00000000e+000 1.85414862e-005 3.19724251e-005 2.87517116e-005 2.76609955e-005 2.52011419e-005 2.43370452e-005 2.39501498e-005 2.08295589e-005 1.67633065e-005 
7.50000000e-001 2.62500000e+001 0.00000000e+000 3.11858880e-005 4.32174561e-005 3.60852113e-005 3.41230096e-005 3.00606888e-005 2.87582002e-005 2.81912882e-005 2.39757385e-005 1.88831429e-005 
7.50000000e-001 2.90204669e+001 0.00000000e+000 5.05463567e-005 5.72370413e-005 4.45902244e-005 4.14876313e-005 3.54057175e-005 3.35700267e-005 3.27865402e-005 2.72896307e-005 2.10384640e-005 
7.50000000e-001 3.15485737e+001 0.00000000e+000 7.93566735e-005 7.46264943e-005 5.45206904e-005 4.99661419e-005 4.13899669e-005 3.89142945e-005 3.78731193e-005 3.08832598e-005 2.33206600e-005 
7.50000000e-001 3.38886043e+001 0.00000000e+000 1.29221779e-004 1.00325626e-004 6.84746642e-005 6.17398603e-005 4.95123221e-005 4.61232836e-005 4.47173527e-005 3.56541941e-005 2.63222667e-005 
1.00000000e+000 8.75000000e+000 0.00000000e+000 5.23546153e-007 3.45964969e-006 4.88976287e-006 5.24417939e-006 5.94536093e-006 6.11218925e-006 6.17296651e-006 6.22453398e-006 5.71844259e-006 
1.00000000e+000 1.51554446e+001 0.00000000e+000 1.81394182e-006 7.66550275e-006 9.37026386e-006 9.70150187e-006 1.02359002e-005 1.03080865e-005 1.03222844e-005 9.92724673e-006 8.78646173e-006 
1.00000000e+000 1.95655948e+001 0.00000000e+000 4.51299692e-006 1.33706890e-005 1.45033762e-005 1.45977438e-005 1.45642265e-005 1.44375374e-005 1.43637140e-005 1.33143329e-005 1.14054570e-005 
1.00000000e+000 2.31503240e+001 0.00000000e+000 9.53694345e-006 2.08501799e-005 2.03752554e-005 2.00086620e-005 1.90161717e-005 1.85946495e-005 1.83953009e-005 1.65080030e-005 1.37190719e-005 
1.00000000e+000 2.62500000e+001 0.00000000e+000 1.88002060e-005 3.10807418e-005 2.75608795e-005 2.64488816e-005 2.40181817e-005 2.31852046e-005 2.28145576e-005 1.98512322e-005 1.60112902e-005 
1.00000000e+000 2.90204669e+001 0.00000000e+000 3.52436342e-005 4.50733971e-005 3.65502193e-005 3.43369804e-005 2.98902020e-005 2.85080191e-005 2.79121383e-005 2.35864983e-005 1.84789770e-005 
1.00000000e+000 3.15485737e+001 0.00000000e+000 6.32872627e-005 6.39007507e-005 4.77305677e-005 4.39702965e-005 3.68091043e-005 3.47162731e-005 3.38324869e-005 2.78158863e-005 2.11967276e-005 
1.00000000e+000 3.38886043e+001 0.00000000e+000 1.18510119e-004 9.36964249e-005 6.42091105e-005 5.79360285e-005 4.65244428e-005 4.33577905e-005 4.20438553e-005 3.35665440e-005 2.48308239e-005 
1.25000000e+000 8.75000000e+000 0.00000000e+000 1.48272678e-007 1.61223111e-006 2.71840949e-006 3.04259123e-006 3.75888267e-006 3.96115805e-006 4.04201448e-006 4.32951534e-006 4.22137737e-006 
1.25000000e+000 1.51554446e+001 0.00000000e+000 6.66500200e-007 4.11593415e-006 5.75391446e-006 6.15636106e-006 6.94484611e-006 7.13133306e-006 7.19955824e-006 7.26495612e-006 6.74647429e-006 
1.25000000e+000 1.95655948e+001 0.00000000e+000 2.02162139e-006 8.07153695e-006 9.71324545e-006 1.00278766e-005 1.05371943e-005 1.06051178e-005 1.06181646e-005 1.02205710e-005 9.09523056e-006 
1.25000000e+000 2.31503240e+001 0.00000000e+000 5.04780260e-006 1.39380309e-005 1.47507152e-005 1.47680511e-005 1.45991896e-005 1.44409996e-005 1.43554057e-005 1.32585106e-005 1.13465495e-005 
1.25000000e+000 2.62500000e+001 0.00000000e+000 1.15978106e-005 2.28388042e-005 2.14745807e-005 2.08992342e-005 1.95249705e-005 1.90044897e-005 1.87657259e-005 1.66696960e-005 1.37342548e-005 
1.25000000e+000 2.90204669e+001 0.00000000e+000 2.50172595e-005 3.61317919e-005 3.04918448e-005 2.89153738e-005 2.56475742e-005 2.45948202e-005 2.41355917e-005 2.06735878e-005 1.64258582e-005 
1.25000000e+000 3.15485737e+001 0.00000000e+000 5.11534398e-005 5.54990365e-005 4.24143695e-005 3.92775034e-005 3.32187663e-005 3.14215130e-005 3.06588768e-005 2.53895283e-005 1.94947683e-005 
1.25000000e+000 3.38886043e+001 0.00000000e+000 1.09683170e-004 8.84295889e-005 6.09268677e-005 5.50306571e-005 4.42658517e-005 4.12696745e-005 4.00254945e-005 3.19844678e-005 2.36855562e-005 
1.50000000e+000 8.75000000e+000 0.00000000e+000 4.33164485e-008 7.62754904e-007 1.52584708e-006 1.78012289e-006 2.39109383e-006 2.58133251e-006 2.66067956e-006 3.02330731e-006 3.12491681e-006 
1.50000000e+000 1.51554446e+001 0.00000000e+000 2.51815527e-007 2.25434452e-006 3.58710218e-006 3.96103830e-006 4.76425536e-006 4.98428234e-006 5.07137519e-006 5.35857024e-006 5.21071484e-006 
1.50000000e+000 1.95655948e+001 0.00000000e+000 9.27079136e-007 4.96703891e-006 6.61158974e-006 6.99451924e-006 7.72317674e-006 7.88587055e-006 7.94337886e-006 7.92394210e-006 7.30977469e-006 
1.50000000e+000 2.31503240e+001 0.00000000e+000 2.72369632e-006 9.47545162e-006 1.08438086e-005 1.10621162e-005 1.13573794e-005 1.13582429e-005 1.13428516e-005 1.07643260e-005 9.46804491e-006 
1.50000000e+000 2.62500000e+001 0.00000000e+000 7.26641901e-006 1.70183162e-005 1.69597106e-005 1.67344975e-005 1.60714117e-005 1.57677466e-005 1.56213682e-005 1.41506354e-005 1.18912880e-005 
1.50000000e+000 2.90204669e+001 0.00000000e+000 1.79722949e-005 2.92870897e-005 2.57261422e-005 2.46260212e-005 2.22522386e-005 2.14520506e-005 2.10979109e-005 1.83066183e-005 1.47353433e-005 
1.50000000e+000 3.15485737e+001 0.00000000e+000 4.17162882e-005 4.86151174e-005 3.80342235e-005 3.54112552e-005 3.02633968e-005 2.87098233e-005 2.80468927e-005 2.33899833e-005 1.80851033e-005 
1.50000000e+000 3.38886043e+001 0.00000000e+000 1.02126880e-004 8.39635656e-005 5.82063301e-005 5.26405091e-005 4.24364823e-005 3.95851811e-005 3.83997764e-005 3.07182904e-005 2.27684589e-005 
1.75000000e+000 8.75000000e+000 0.00000000e+000 1.29817197e-008 3.65822351e-007 8.64172940e-007 1.04973998e-006 1.52992709e-006 1.69107094e-006 1.76029567e-006 2.11924619e-006 2.31953805e-006 
1.75000000e+000 1.51554446e+001 0.00000000e+000 9.71520223e-008 1.25429073e-006 2.26459358e-006 2.57844442e-006 3.29988114e-006 3.51503756e-006 3.60349679e-006 3.98050108e-006 4.04644064e-006 
1.75000000e+000 1.95655948e+001 0.00000000e+000 4.32558708e-007 3.10059560e-006 4.55738612e-006 4.93768922e-006 5.72079157e-006 5.92322669e-006 6.00124648e-006 6.19553179e-006 5.91521741e-006 
1.75000000e+000 2.31503240e+001 0.00000000e+000 1.49070346e-006 6.51994751e-006 8.06228107e-006 8.37792255e-006 8.92601384e-006 9.02235115e-006 9.05027876e-006 8.81615526e-006 7.95970047e-006 
1.75000000e+000 2.62500000e+001 0.00000000e+000 4.60544051e-006 1.28059920e-005 1.35225109e-005 1.35270882e-005 1.33503846e-005 1.32006671e-005 1.31206311e-005 1.21132139e-005 1.03729880e-005 
1.75000000e+000 2.90204669e+001 0.00000000e+000 1.30269641e-005 2.39211859e-005 2.18730461e-005 2.11359609e-005 1.94572313e-005 1.88566817e-005 1.85859876e-005 1.63333896e-005 1.33124611e-005 
1.75000000e+000 3.15485737e+001 0.00000000e+000 3.42463462e-005 4.28316672e-005 3.43116854e-005 3.21213639e-005 2.77471081e-005 2.64014697e-005 2.58236564e-005 2.16889796e-005 1.68847617e-005 
1.75000000e+000 3.38886043e+001 0.00000000e+000 9.55201666e-005 8.00408023e-005 5.58470948e-005 5.05790608e-005 4.08802725e-005 3.81585404e-005 3.70254700e-005 2.96589013e-005 2.20063438e-005 
2.00000000e+000 8.75000000e+000 0.00000000e+000 3.97341215e-009 1.77615253e-007 4.93523183e-007 6.23621114e-007 9.84363933e-007 1.11345146e-006 1.17025502e-006 1.49100513e-006 1.72628435e-006 
2.00000000e+000 1.51554446e+001 0.00000000e+000 3.81042456e-008 7.06735673e-007 1.44475671e-006 1.69503959e-006 2.30471697e-006 2.49840581e-006 2.58010759e-006 2.97565035e-006 3.15797719e-006 
2.00000000e+000 1.95655948e+001 0.00000000e+000 2.04570836e-007 1.95692125e-006 3.17275486e-006 3.51920314e-006 4.27434267e-006 4.48618852e-006 4.57114043e-006 4.87907410e-006 4.81551214e-006 
2.00000000e+000 2.31503240e+001 0.00000000e+000 8.25036001e-007 4.52745798e-006 6.04594688e-006 6.39873590e-006 7.07132118e-006 7.22295188e-006 7.27699864e-006 7.27210467e-006 6.73367533e-006 
2.00000000e+000 2.62500000e+001 0.00000000e+000 2.94568355e-006 9.70731974e-006 1.08584438e-005 1.10115192e-005 1.11667838e-005 1.11272977e-005 1.10954360e-005 1.04370599e-005 9.10332586e-006 
2.00000000e+000 2.90204669e+001 0.00000000e+000 9.50956461e-006 1.96499039e-005 1.87012556e-005 1.82425474e-005 1.71101120e-005 1.66698851e-005 1.64666178e-005 1.46556476e-005 1.20930493e-005 
2.00000000e+000 3.15485737e+001 0.00000000e+000 2.82624602e-005 3.78973216e-005 3.10859140e-005 2.92634409e-005 2.55548607e-005 2.43897892e-005 2.38860476e-005 2.02069678e-005 1.58394964e-005 
2.00000000e+000 3.38886043e+001 0.00000000e+000 8.96650542e-005 7.65225998e-005 5.37433828e-005 4.87471068e-005 3.95111785e-005 3.69081061e-005 3.58228928e-005 2.87415233e-005 2.13529250e-005 
2.25000000e+000 8.75000000e+000 0.00000000e+000 1.23766948e-009 8.71882065e-008 2.84028091e-007 3.73036238e-007 6.36684299e-007 7.36657418e-007 7.81588935e-007 1.05272707e-006 1.28806704e-006 
2.25000000e+000 1.51554446e+001 0.00000000e+000 1.51473640e-008 4.02341915e-007 9.29869705e-007 1.12362301e-006 1.62132673e-006 1.78800912e-006 1.85975511e-006 2.23712155e-006 2.47581940e-006 
2.25000000e+000 1.95655948e+001 0.00000000e+000 9.78191530e-008 1.24596866e-006 2.22648681e-006 2.52768873e-006 3.21643731e-006 3.42131703e-006 3.50559024e-006 3.86592283e-006 3.94085818e-006 
2.25000000e+000 2.31503240e+001 0.00000000e+000 4.60812039e-007 3.16662849e-006 4.56454097e-006 4.91959128e-006 5.63765591e-006 5.81860122e-006 5.88748889e-006 6.03348564e-006 5.72655912e-006 
2.25000000e+000 2.62500000e+001 0.00000000e+000 1.89833758e-006 7.40120933e-006 8.76705791e-006 9.01250375e-006 9.39033599e-006 9.42951132e-006 9.43264113e-006 9.03939856e-006 8.02829487e-006 
2.25000000e+000 2.90204669e+001 0.00000000e+000 6.98277538e-006 1.62137689e-005 1.60579093e-005 1.58125556e-005 1.51109174e-005 1.48003894e-005 1.46520826e-005 1.32075427e-005 1.10326949e-005 
2.25000000e+000 3.15485737e+001 0.00000000e+000 2.34264025e-005 3.36435521e-005 2.82544751e-005 2.67464144e-005 2.36145143e-005 2.26076853e-005 2.21690644e-005 1.88926987e-005 1.49129835e-005 
2.25000000e+000 3.38886043e+001 0.00000000e+000 8.44264756e-005 7.33243857e-005 5.18335692e-005 4.70870713e-005 3.82787534e-005 3.57856090e-005 3.47447354e-005 2.79263438e-005 2.07782934e-005 
2.50000000e+000 8.75000000e+000 0.00000000e+000 3.91228290e-010 4.32212223e-008 1.64627449e-007 2.24575319e-007 4.13855720e-007 4.89595424e-007 5.24299791e-007 7.45813606e-007 9.63487861e-007 
2.50000000e+000 1.51554446e+001 0.00000000e+000 6.08988076e-009 2.31027388e-007 6.02952593e-007 7.50143391e-007 1.14774101e-006 1.28728597e-006 1.34840043e-006 1.69042841e-006 1.94907721e-006 
2.50000000e+000 1.95655948e+001 0.00000000e+000 4.72082563e-008 7.99022952e-007 1.57268263e-006 1.82710531e-006 2.43475154e-006 2.62431808e-006 2.70380365e-006 3.07919874e-006 3.23987945e-006 
2.50000000e+000 2.31503240e+001 0.00000000e+000 2.59371536e-007 2.22792961e-006 3.46492476e-006 3.80264614e-006 4.51782598e-006 4.71112962e-006 4.78736682e-006 5.02995071e-006 4.89176039e-006 
2.50000000e+000 2.62500000e+001 0.00000000e+000 1.23124050e-006 5.66983610e-006 7.10963896e-006 7.40842912e-006 7.93011884e-006 8.02463207e-006 8.05294634e-006 7.86146657e-006 7.10866251e-006 
2.50000000e+000 2.90204669e+001 0.00000000e+000 5.15314731e-006 1.34277450e-005 1.38353326e-005 1.37527022e-005 1.33903765e-005 1.31850247e-005 1.30816785e-005 1.19432415e-005 1.00998609e-005 
2.50000000e+000 3.15485737e+001 0.00000000e+000 1.94907823e-005 2.99489195e-005 2.57467541e-005 2.45082878e-005 2.18778996e-005 2.10104615e-005 2.06294215e-005 1.77118115e-005 1.40802653e-005 
2.50000000e+000 3.38886043e+001 0.00000000e+000 7.97059108e-005 7.03896740e-005 5.00785469e-005 4.55627802e-005 3.71515593e-005 3.47609045e-005 3.37614052e-005 2.71879768e-005 2.02626656e-005 
0.00000000e+000 8.75000000e+000 1.00000000e+001 1.17435604e-004 8.13783561e-005 5.27134054e-005 4.68978967e-005 3.66040372e-005 3.38248070e-005 3.26803384e-005 2.54641189e-005 1.82002921e-005 
0.00000000e+000 1.51554446e+001 1.00000000e+001 1.49399512e-004 1.02311493e-004 6.58493279e-005 5.84227557e-005 4.52249936e-005 4.16661644e-005 4.02043319e-005 3.11007111e-005 2.21508281e-005 
0.00000000e+000 1.95655948e+001 1.00000000e+001 1.66422580e-004 1.13404887e-004 7.27967155e-005 6.45267055e-005 4.98258413e-005 4.58645784e-005 4.42385662e-005 3.41467300e-005 2.42911240e-005 
0.00000000e+000 2.31503240e+001 1.00000000e+001 1.76467948e-004 1.20072977e-004 7.69794016e-005 6.82071332e-005 5.26198602e-005 4.84226179e-005 4.67003075e-005 3.60233174e-005 2.56174767e-005 
0.00000000e+000 2.62500000e+001 1.00000000e+001 1.82866734e-004 1.24350332e-004 7.96522413e-005 7.05574518e-005 5.44084009e-005 5.00635955e-005 4.82812278e-005 3.72375497e-005 2.64783488e-005 
0.00000000e+000 2.90204669e+001 1.00000000e+001 1.88478215e-004 1.28142120e-004 8.19980035e-005 7.26126000e-005 5.59611150e-005 5.14862334e-005 4.96512178e-005 3.82889398e-005 2.72236981e-005 
0.00000000e+000 3.15485737e+001 1.00000000e+001 1.95244306e-004 1.32696105e-004 8.47612949e-005 7.50144570e-005 5.77413186e-005 5.31078724e-005 5.12091652e-005 3.94705842e-005 2.80579245e-005 
0.00000000e+000 3.38886043e+001 1.00000000e+001 2.05350391e-004 1.39489840e-004 8.88624696e-005 7.85640343e-005 6.03365224e-005 5.54600691e-005 5.34640745e-005 4.11603052e-005 2.92449327e-005 
2.50000000e-001 8.75000000e+000 1.00000000e+001 2.67863875e-005 3.47956502e-005 2.77938360e-005 2.59820397e-005 2.23713142e-005 2.12582853e-005 2.07786037e-005 1.73194059e-005 1.32176193e-005 
2.50000000e-001 1.51554446e+001 1.00000000e+001 3.90605040e-005 4.67306808e-005 3.63694054e-005 3.37593490e-005 2.85955550e-005 2.70313086e-005 2.63631012e-005 2.17025690e-005 1.64238120e-005 
2.50000000e-001 1.95655948e+001 1.00000000e+001 4.96810108e-005 5.52948956e-005 4.21089444e-005 3.88864917e-005 3.25940964e-005 3.07162920e-005 2.99184756e-005 2.44490720e-005 1.83898913e-005 
2.50000000e-001 2.31503240e+001 1.00000000e+001 6.00845793e-005 6.25400392e-005 4.66618332e-005 4.28907198e-005 3.56273014e-005 3.34904096e-005 3.25867625e-005 2.64735797e-005 1.98079128e-005 
2.50000000e-001 2.62500000e+001 1.00000000e+001 7.16135412e-005 6.96034784e-005 5.08277224e-005 4.64916378e-005 3.82590064e-005 3.58727861e-005 3.48685307e-005 2.81614649e-005 2.09552385e-005 
2.50000000e-001 2.90204669e+001 1.00000000e+001 8.55182826e-005 7.75299481e-005 5.53396347e-005 5.03515885e-005 4.10156323e-005 3.83507920e-005 3.72349055e-005 2.98816260e-005 2.21032090e-005 
2.50000000e-001 3.15485737e+001 1.00000000e+001 1.03399465e-004 8.73293399e-005 6.08076869e-005 5.49997046e-005 4.42856981e-005 4.12766032e-005 4.00234372e-005 3.18866740e-005 2.34315541e-005 
2.50000000e-001 3.38886043e+001 1.00000000e+001 1.30981626e-004 1.01833390e-004 6.87885980e-005 6.17526210e-005 4.89823449e-005 4.54631003e-005 4.40071884e-005 3.47262726e-005 2.53049758e-005 
5.00000000e-001 8.75000000e+000 1.00000000e+001 6.50759866e-006 1.51995210e-005 1.48348101e-005 1.45451547e-005 1.37725025e-005 1.34473151e-005 1.32930104e-005 1.18326736e-005 9.62876354e-006 
5.00000000e-001 1.51554446e+001 1.00000000e+001 1.17689922e-005 2.25115495e-005 2.07274524e-005 2.00405311e-005 1.84291730e-005 1.78387762e-005 1.75705407e-005 1.53263026e-005 1.22791039e-005 
5.00000000e-001 1.95655948e+001 1.00000000e+001 1.80867010e-005 2.92144453e-005 2.55664233e-005 2.44353732e-005 2.19689297e-005 2.11304476e-005 2.07581876e-005 1.78395068e-005 1.41078229e-005 
5.00000000e-001 2.31503240e+001 1.00000000e+001 2.59684228e-005 3.61089378e-005 3.01413349e-005 2.85009633e-005 2.51021409e-005 2.40074118e-005 2.35295524e-005 1.99561342e-005 1.55926514e-005 
5.00000000e-001 2.62500000e+001 1.00000000e+001 3.65708593e-005 4.40262312e-005 3.50403734e-005 3.27714789e-005 2.82593463e-005 2.68702493e-005 2.62726959e-005 2.19838865e-005 1.69618367e-005 
5.00000000e-001 2.90204669e+001 1.00000000e+001 5.12751707e-005 5.37812237e-005 4.08108392e-005 3.77416281e-005 3.18391307e-005 3.00905675e-005 2.93480241e-005 2.42116105e-005 1.84339081e-005 
5.00000000e-001 3.15485737e+001 1.00000000e+001 7.23832176e-005 6.64725820e-005 4.80615005e-005 4.39304566e-005 3.62121454e-005 3.40023068e-005 3.30748854e-005 2.68758559e-005 2.01761502e-005 
5.00000000e-001 3.38886043e+001 1.00000000e+001 1.09137758e-004 8.62972195e-005 5.89946870e-005 5.31785796e-005 4.26233393e-005 3.97051567e-005 3.84955957e-005 3.07016052e-005 2.26561028e-005 
7.50000000e-001 8.75000000e+000 1.00000000e+001 1.67133334e-006 6.77538645e-006 8.01191520e-006 8.22522632e-006 8.53919472e-006 8.56041427e-006 8.55559038e-006 8.11978883e-006 7.03577750e-006 
7.50000000e-001 1.51554446e+001 1.00000000e+001 3.89933758e-006 1.13317580e-005 1.21427125e-005 1.21852932e-005 1.20857290e-005 1.19583791e-005 1.18872120e-005 1.09449449e-005 9.25301380e-006 
7.50000000e-001 1.95655948e+001 1.00000000e+001 7.34292387e-006 1.63752500e-005 1.61428573e-005 1.58942789e-005 1.51928410e-005 1.48788130e-005 1.47277150e-005 1.32387377e-005 1.09548517e-005 
7.50000000e-001 2.31503240e+001 1.00000000e+001 1.25337952e-005 2.23178845e-005 2.04168268e-005 1.97587230e-005 1.82662151e-005 1.77237407e-005 1.74770544e-005 1.53739178e-005 1.24703005e-005 
7.50000000e-001 2.62500000e+001 1.00000000e+001 2.07245840e-005 2.99332796e-005 2.54716576e-005 2.42335182e-005 2.16680219e-005 2.08300634e-005 2.04617140e-005 1.76110046e-005 1.39947187e-005 
7.50000000e-001 2.90204669e+001 1.00000000e+001 3.37341234e-005 4.00854623e-005 3.18147478e-005 2.97647240e-005 2.57427607e-005 2.45163715e-005 2.39898167e-005 2.01945412e-005 1.57132062e-005 
7.50000000e-001 3.15485737e+001 1.00000000e+001 5.48258319e-005 5.41413731e-005 4.01407818e-005 3.69313184e-005 3.08851958e-005 2.91337433e-005 2.83953172e-005 2.33645759e-005 1.77908688e-005 
7.50000000e-001 3.38886043e+001 1.00000000e+001 9.66919057e-005 7.76558470e-005 5.32967193e-005 4.80977600e-005 3.86728953e-005 3.60695958e-005 3.49907301e-005 2.80223281e-005 2.07987966e-005 
1.00000000e+000 8.75000000e+000 1.00000000e+001 4.49919264e-007 3.07773066e-006 4.37604051e-006 4.69663852e-006 5.33101609e-006 5.48313698e-006 5.53893009e-006 5.59600241e-006 5.15651635e-006 
1.00000000e+000 1.51554446e+001 1.00000000e+001 1.37263887e-006 5.90598781e-006 7.28242876e-006 7.56454489e-006 8.05004777e-006 8.13054133e-006 8.15196003e-006 7.89705633e-006 7.02452148e-006 
1.00000000e+000 1.95655948e+001 1.00000000e+001 3.16379417e-006 9.56771694e-006 1.05082127e-005 1.06272218e-005 1.07347309e-005 1.06854138e-005 1.06495236e-005 9.97127266e-006 8.60012537e-006 
1.00000000e+000 2.31503240e+001 1.00000000e+001 6.38646246e-006 1.44026637e-005 1.43081472e-005 1.41331161e-005 1.36319902e-005 1.33951909e-005 1.32792610e-005 1.20608263e-005 1.01110616e-005 
1.00000000e+000 2.62500000e+001 1.00000000e+001 1.23107515e-005 2.12143702e-005 1.91739172e-005 1.85151402e-005 1.70751732e-005 1.65675999e-005 1.63385321e-005 1.43999625e-005 1.17317172e-005 
1.00000000e+000 2.90204669e+001 1.00000000e+001 2.30820097e-005 3.10225997e-005 2.56500770e-005 2.42375653e-005 2.14010223e-005 2.05088191e-005 2.01214534e-005 1.72139949e-005 1.36282516e-005 
1.00000000e+000 3.15485737e+001 1.00000000e+001 4.28469540e-005 4.55481247e-005 3.45708682e-005 3.19845019e-005 2.70580933e-005 2.56126958e-005 2.50006008e-005 2.07616307e-005 1.59719822e-005 
1.00000000e+000 3.38886043e+001 1.00000000e+001 8.75818912e-005 7.16956252e-005 4.94268806e-005 4.46438142e-005 3.59566893e-005 3.35545562e-005 3.25588876e-005 2.61205689e-005 1.94377785e-005 
1.25000000e+000 8.75000000e+000 1.00000000e+001 1.25914308e-007 1.42247236e-006 2.41575632e-006 2.70666925e-006 3.35030065e-006 3.53304995e-006 3.60636472e-006 3.87289265e-006 3.79034462e-006 
1.25000000e+000 1.51554446e+001 1.00000000e+001 5.02697000e-007 3.16208776e-006 4.45390372e-006 4.77961843e-006 5.43588416e-006 5.59784419e-006 5.65841184e-006 5.75174074e-006 5.36966069e-006 
1.25000000e+000 1.95655948e+001 1.00000000e+001 1.41242938e-006 5.75395891e-006 7.00119220e-006 7.25998494e-006 7.71936372e-006 7.80060467e-006 7.82378231e-006 7.60705084e-006 6.81771576e-006 
1.25000000e+000 2.31503240e+001 1.00000000e+001 3.35695781e-006 9.55606112e-006 1.02713072e-005 1.03415174e-005 1.03730900e-005 1.03111193e-005 1.02715803e-005 9.60374093e-006 8.29495110e-006 
1.25000000e+000 2.62500000e+001 1.00000000e+001 7.50957487e-006 1.54150776e-005 1.47695638e-005 1.44632934e-005 1.37246087e-005 1.34288676e-005 1.32900468e-005 1.19638616e-005 9.96345222e-006 
1.25000000e+000 2.90204669e+001 1.00000000e+001 1.61431909e-005 2.45268202e-005 2.11140708e-005 2.01426135e-005 1.81310237e-005 1.74731881e-005 1.71837554e-005 1.49108488e-005 1.19811950e-005 
1.25000000e+000 3.15485737e+001 1.00000000e+001 3.40686430e-005 3.89922513e-005 3.03087966e-005 2.81961018e-005 2.41149446e-005 2.28987208e-005 2.23809899e-005 1.87335742e-005 1.45324516e-005 
1.25000000e+000 3.38886043e+001 1.00000000e+001 8.02735057e-005 6.70491426e-005 4.64865484e-005 4.20345998e-005 3.39196768e-005 3.16689896e-005 3.07353483e-005 2.46864110e-005 1.83959792e-005 
1.50000000e+000 8.75000000e+000 1.00000000e+001 3.63735898e-008 6.67842581e-007 1.34699519e-006 1.57352113e-006 2.11893912e-006 2.28959358e-006 2.36097229e-006 2.69131889e-006 2.79416098e-006 
1.50000000e+000 1.51554446e+001 1.00000000e+001 1.89209890e-007 1.72842434e-006 2.76831478e-006 3.06502030e-006 3.71459384e-006 3.89683620e-006 3.96969864e-006 4.22495238e-006 4.13092401e-006 
1.50000000e+000 1.95655948e+001 1.00000000e+001 6.45583807e-007 3.53176282e-006 4.74766653e-006 5.04301435e-006 5.63071508e-006 5.77177549e-006 5.82367344e-006 5.86722143e-006 5.45145825e-006 
1.50000000e+000 2.31503240e+001 1.00000000e+001 1.80102510e-006 6.45954621e-006 7.50118803e-006 7.69354541e-006 8.01146797e-006 8.05094602e-006 8.05682403e-006 7.74039244e-006 6.87297595e-006 
1.50000000e+000 2.62500000e+001 1.00000000e+001 4.66203321e-006 1.13836138e-005 1.15560883e-005 1.14727044e-005 1.11908375e-005 1.10374206e-005 1.09598629e-005 1.00635030e-005 8.55147202e-006 
1.50000000e+000 2.90204669e+001 1.00000000e+001 1.14557551e-005 1.96538240e-005 1.76160973e-005 1.69656887e-005 1.55621773e-005 1.50789585e-005 1.48627248e-005 1.30698417e-005 1.06446378e-005 
1.50000000e+000 3.15485737e+001 1.00000000e+001 2.74017827e-005 3.37396517e-005 2.68684442e-005 2.51361081e-005 2.17352606e-005 2.07031462e-005 2.02611090e-005 1.70869897e-005 1.33550457e-005 
1.50000000e+000 3.38886043e+001 1.00000000e+001 7.41516455e-005 6.31812347e-005 4.40844293e-005 3.99161465e-005 3.22865237e-005 3.01619747e-005 2.92795962e-005 2.35462525e-005 1.75654573e-005 
1.75000000e+000 8.75000000e+000 1.00000000e+001 1.07824993e-008 3.18004864e-007 7.58095112e-007 9.22293383e-007 1.34829833e-006 1.49193273e-006 1.55379020e-006 1.87763112e-006 2.06559191e-006 
1.75000000e+000 1.51554446e+001 1.00000000e+001 7.26671562e-008 9.60070896e-007 1.74357877e-006 1.98991299e-006 2.56454998e-006 2.73890254e-006 2.81106957e-006 3.12717258e-006 3.19662973e-006 
1.75000000e+000 1.95655948e+001 1.00000000e+001 3.00144653e-007 2.20031442e-006 3.26326596e-006 3.54873787e-006 4.15477743e-006 4.31786859e-006 4.38184573e-006 4.56749849e-006 4.39202476e-006 
1.75000000e+000 2.31503240e+001 1.00000000e+001 9.80670313e-007 4.42441610e-006 5.54740821e-006 5.79433673e-006 6.25861247e-006 6.35625084e-006 6.38903046e-006 6.30006457e-006 5.74255501e-006 
1.75000000e+000 2.62500000e+001 1.00000000e+001 2.93160787e-006 8.50191377e-006 9.14223818e-006 9.20068008e-006 9.22173580e-006 9.16649796e-006 9.13172117e-006 8.54655925e-006 7.40246667e-006 
1.75000000e+000 2.90204669e+001 1.00000000e+001 8.21671802e-006 1.58963269e-005 1.48347239e-005 1.44232980e-005 1.34813603e-005 1.31329166e-005 1.29734471e-005 1.15577281e-005 9.53486574e-006 
1.75000000e+000 3.15485737e+001 1.00000000e+001 2.22270473e-005 2.94101121e-005 2.39969123e-005 2.25777445e-005 1.97420298e-005 1.88636244e-005 1.84848190e-005 1.57060145e-005 1.23647987e-005 
1.75000000e+000 3.38886043e+001 1.00000000e+001 6.88943080e-005 5.98400904e-005 4.20312333e-005 3.81136591e-005 3.09128157e-005 2.88989734e-005 2.80614058e-005 2.25998958e-005 1.68791749e-005 
2.00000000e+000 8.75000000e+000 1.00000000e+001 3.26467922e-009 1.53345889e-007 4.30356670e-007 5.44741735e-007 8.62885266e-007 9.77263464e-007 1.02771362e-006 1.31495411e-006 1.53117851e-006 
2.00000000e+000 1.51554446e+001 1.00000000e+001 2.83492539e-008 5.40074327e-007 1.11017995e-006 1.30526825e-006 1.78624177e-006 1.94114969e-006 2.00683656e-006 2.33040471e-006 2.48692637e-006 